V -t * -v 1.0a5 -a 0
A -t * -n 1 -p 0 -o 0xffffffff -c 31 -a 1
A -t * -h 1 -m 2147483647 -s 0
n -t * -a 167772161 -s 0 -S UP -v circle -c black -i black
n -t * -a 167772417 -s 1 -S UP -v circle -c black -i black
l -t * -s 0 -d 1 -S UP -r 1000000 -D 0.001 -c black
+ -t 0.01 -s 0 -d 1 -p tcp -e 40 -c 0 -i 0 -a 0 -x {167772161.180 167772417.179 0 ------- null}
- -t 0.01 -s 0 -d 1 -p tcp -e 40 -c 0 -i 0 -a 0 -x {167772161.180 167772417.179 0 ------- null}
h -t 0.01 -s 0 -d 1 -p tcp -e 40 -c 0 -i 0 -a 0 -x {167772161.180 167772417.179 -1 ------- null}
+ -t 0.01 -s 1 -d 0 -p tcp -e 40 -c 0 -i 1 -a 0 -x {167772417.180 167772161.179 0 ------- null}
- -t 0.01 -s 1 -d 0 -p tcp -e 40 -c 0 -i 1 -a 0 -x {167772417.180 167772161.179 0 ------- null}
h -t 0.01 -s 1 -d 0 -p tcp -e 40 -c 0 -i 1 -a 0 -x {167772417.180 167772161.179 -1 ------- null}
r -t 0.01132 -s 0 -d 1 -p tcp -e 40 -c 0 -i 0 -a 0 -x {167772161.180 167772417.179 0 ------- null}
+ -t 0.01132 -s 1 -d 0 -p ack -e 40 -c 0 -i 2 -a 0 -x {167772417.179 167772161.180 0 ------- null}
- -t 0.01132 -s 1 -d 0 -p ack -e 40 -c 0 -i 2 -a 0 -x {167772417.179 167772161.180 0 ------- null}
h -t 0.01132 -s 1 -d 0 -p ack -e 40 -c 0 -i 2 -a 0 -x {167772417.179 167772161.180 -1 ------- null}
r -t 0.01132 -s 1 -d 0 -p tcp -e 40 -c 0 -i 1 -a 0 -x {167772417.180 167772161.179 0 ------- null}
+ -t 0.01132 -s 0 -d 1 -p ack -e 40 -c 0 -i 3 -a 0 -x {167772161.179 167772417.180 0 ------- null}
- -t 0.01132 -s 0 -d 1 -p ack -e 40 -c 0 -i 3 -a 0 -x {167772161.179 167772417.180 0 ------- null}
h -t 0.01132 -s 0 -d 1 -p ack -e 40 -c 0 -i 3 -a 0 -x {167772161.179 167772417.180 -1 ------- null}
r -t 0.01264 -s 1 -d 0 -p ack -e 40 -c 0 -i 2 -a 0 -x {167772417.179 167772161.180 0 ------- null}
+ -t 0.01264 -s 0 -d 1 -p tcp -e 40 -c 0 -i 4 -a 0 -x {167772161.180 167772417.179 1 ------- null}
- -t 0.01264 -s 0 -d 1 -p tcp -e 40 -c 0 -i 4 -a 0 -x {167772161.180 167772417.179 1 ------- null}
h -t 0.01264 -s 0 -d 1 -p tcp -e 40 -c 0 -i 4 -a 0 -x {167772161.180 167772417.179 -1 ------- null}
+ -t 0.01264 -s 0 -d 1 -p tcp -e 40 -c 0 -i 5 -a 0 -x {167772161.180 167772417.179 1 ------- null}
r -t 0.01264 -s 0 -d 1 -p ack -e 40 -c 0 -i 3 -a 0 -x {167772161.179 167772417.180 0 ------- null}
+ -t 0.01264 -s 1 -d 0 -p tcp -e 40 -c 0 -i 6 -a 0 -x {167772417.180 167772161.179 1 ------- null}
- -t 0.01264 -s 1 -d 0 -p tcp -e 40 -c 0 -i 6 -a 0 -x {167772417.180 167772161.179 1 ------- null}
h -t 0.01264 -s 1 -d 0 -p tcp -e 40 -c 0 -i 6 -a 0 -x {167772417.180 167772161.179 -1 ------- null}
+ -t 0.01264 -s 1 -d 0 -p tcp -e 40 -c 0 -i 7 -a 0 -x {167772417.180 167772161.179 1 ------- null}
- -t 0.01296 -s 0 -d 1 -p tcp -e 40 -c 0 -i 5 -a 0 -x {167772161.180 167772417.179 1 ------- null}
h -t 0.01296 -s 0 -d 1 -p tcp -e 40 -c 0 -i 5 -a 0 -x {167772161.180 167772417.179 -1 ------- null}
- -t 0.01296 -s 1 -d 0 -p tcp -e 40 -c 0 -i 7 -a 0 -x {167772417.180 167772161.179 1 ------- null}
h -t 0.01296 -s 1 -d 0 -p tcp -e 40 -c 0 -i 7 -a 0 -x {167772417.180 167772161.179 -1 ------- null}
r -t 0.01396 -s 0 -d 1 -p tcp -e 40 -c 0 -i 4 -a 0 -x {167772161.180 167772417.179 1 ------- null}
+ -t 0.01396 -s 1 -d 0 -p tcp -e 69 -c 0 -i 8 -a 0 -x {167772417.180 167772161.179 1 ------- null}
- -t 0.01396 -s 1 -d 0 -p tcp -e 69 -c 0 -i 8 -a 0 -x {167772417.180 167772161.179 1 ------- null}
h -t 0.01396 -s 1 -d 0 -p tcp -e 69 -c 0 -i 8 -a 0 -x {167772417.180 167772161.179 -1 ------- null}
r -t 0.01396 -s 1 -d 0 -p tcp -e 40 -c 0 -i 6 -a 0 -x {167772417.180 167772161.179 1 ------- null}
+ -t 0.01396 -s 0 -d 1 -p tcp -e 69 -c 0 -i 9 -a 0 -x {167772161.180 167772417.179 1 ------- null}
- -t 0.01396 -s 0 -d 1 -p tcp -e 69 -c 0 -i 9 -a 0 -x {167772161.180 167772417.179 1 ------- null}
h -t 0.01396 -s 0 -d 1 -p tcp -e 69 -c 0 -i 9 -a 0 -x {167772161.180 167772417.179 -1 ------- null}
r -t 0.01428 -s 0 -d 1 -p tcp -e 40 -c 0 -i 5 -a 0 -x {167772161.180 167772417.179 1 ------- null}
r -t 0.01428 -s 1 -d 0 -p tcp -e 40 -c 0 -i 7 -a 0 -x {167772417.180 167772161.179 1 ------- null}
r -t 0.015512 -s 1 -d 0 -p tcp -e 69 -c 0 -i 8 -a 0 -x {167772417.180 167772161.179 1 ------- null}
r -t 0.015512 -s 0 -d 1 -p tcp -e 69 -c 0 -i 9 -a 0 -x {167772161.180 167772417.179 1 ------- null}
+ -t 0.1 -s 1 -d 0 -p ack -e 40 -c 0 -i 10 -a 0 -x {167772417.179 167772161.180 1 ------- null}
- -t 0.1 -s 1 -d 0 -p ack -e 40 -c 0 -i 10 -a 0 -x {167772417.179 167772161.180 1 ------- null}
h -t 0.1 -s 1 -d 0 -p ack -e 40 -c 0 -i 10 -a 0 -x {167772417.179 167772161.180 -1 ------- null}
+ -t 0.1 -s 0 -d 1 -p ack -e 40 -c 0 -i 11 -a 0 -x {167772161.179 167772417.180 1 ------- null}
- -t 0.1 -s 0 -d 1 -p ack -e 40 -c 0 -i 11 -a 0 -x {167772161.179 167772417.180 1 ------- null}
h -t 0.1 -s 0 -d 1 -p ack -e 40 -c 0 -i 11 -a 0 -x {167772161.179 167772417.180 -1 ------- null}
r -t 0.10132 -s 1 -d 0 -p ack -e 40 -c 0 -i 10 -a 0 -x {167772417.179 167772161.180 1 ------- null}
+ -t 0.10132 -s 0 -d 1 -p tcp -e 59 -c 0 -i 12 -a 0 -x {167772161.180 167772417.179 30 ------- null}
- -t 0.10132 -s 0 -d 1 -p tcp -e 59 -c 0 -i 12 -a 0 -x {167772161.180 167772417.179 30 ------- null}
h -t 0.10132 -s 0 -d 1 -p tcp -e 59 -c 0 -i 12 -a 0 -x {167772161.180 167772417.179 -1 ------- null}
r -t 0.10132 -s 0 -d 1 -p ack -e 40 -c 0 -i 11 -a 0 -x {167772161.179 167772417.180 1 ------- null}
+ -t 0.10132 -s 1 -d 0 -p tcp -e 59 -c 0 -i 13 -a 0 -x {167772417.180 167772161.179 30 ------- null}
- -t 0.10132 -s 1 -d 0 -p tcp -e 59 -c 0 -i 13 -a 0 -x {167772417.180 167772161.179 30 ------- null}
h -t 0.10132 -s 1 -d 0 -p tcp -e 59 -c 0 -i 13 -a 0 -x {167772417.180 167772161.179 -1 ------- null}
r -t 0.102792 -s 0 -d 1 -p tcp -e 59 -c 0 -i 12 -a 0 -x {167772161.180 167772417.179 30 ------- null}
r -t 0.102792 -s 1 -d 0 -p tcp -e 59 -c 0 -i 13 -a 0 -x {167772417.180 167772161.179 30 ------- null}
+ -t 0.2 -s 1 -d 0 -p ack -e 40 -c 0 -i 14 -a 0 -x {167772417.179 167772161.180 1 ------- null}
- -t 0.2 -s 1 -d 0 -p ack -e 40 -c 0 -i 14 -a 0 -x {167772417.179 167772161.180 1 ------- null}
h -t 0.2 -s 1 -d 0 -p ack -e 40 -c 0 -i 14 -a 0 -x {167772417.179 167772161.180 -1 ------- null}
+ -t 0.2 -s 0 -d 1 -p ack -e 40 -c 0 -i 15 -a 0 -x {167772161.179 167772417.180 1 ------- null}
- -t 0.2 -s 0 -d 1 -p ack -e 40 -c 0 -i 15 -a 0 -x {167772161.179 167772417.180 1 ------- null}
h -t 0.2 -s 0 -d 1 -p ack -e 40 -c 0 -i 15 -a 0 -x {167772161.179 167772417.180 -1 ------- null}
r -t 0.20132 -s 1 -d 0 -p ack -e 40 -c 0 -i 14 -a 0 -x {167772417.179 167772161.180 1 ------- null}
r -t 0.20132 -s 0 -d 1 -p ack -e 40 -c 0 -i 15 -a 0 -x {167772161.179 167772417.180 1 ------- null}
+ -t 29.015512 -s 0 -d 1 -p tcp -e 59 -c 0 -i 16 -a 0 -x {167772161.180 167772417.179 49 ---A--- null}
- -t 29.015512 -s 0 -d 1 -p tcp -e 59 -c 0 -i 16 -a 0 -x {167772161.180 167772417.179 49 ---A--- null}
h -t 29.015512 -s 0 -d 1 -p tcp -e 59 -c 0 -i 16 -a 0 -x {167772161.180 167772417.179 -1 ---A--- null}
+ -t 29.015512 -s 1 -d 0 -p tcp -e 59 -c 0 -i 17 -a 0 -x {167772417.180 167772161.179 49 ---A--- null}
- -t 29.015512 -s 1 -d 0 -p tcp -e 59 -c 0 -i 17 -a 0 -x {167772417.180 167772161.179 49 ---A--- null}
h -t 29.015512 -s 1 -d 0 -p tcp -e 59 -c 0 -i 17 -a 0 -x {167772417.180 167772161.179 -1 ---A--- null}
r -t 29.016984 -s 0 -d 1 -p tcp -e 59 -c 0 -i 16 -a 0 -x {167772161.180 167772417.179 49 ---A--- null}
r -t 29.016984 -s 1 -d 0 -p tcp -e 59 -c 0 -i 17 -a 0 -x {167772417.180 167772161.179 49 ---A--- null}
+ -t 29.1000000000001 -s 1 -d 0 -p ack -e 40 -c 0 -i 18 -a 0 -x {167772417.179 167772161.180 1 ------- null}
- -t 29.1000000000001 -s 1 -d 0 -p ack -e 40 -c 0 -i 18 -a 0 -x {167772417.179 167772161.180 1 ------- null}
h -t 29.1000000000001 -s 1 -d 0 -p ack -e 40 -c 0 -i 18 -a 0 -x {167772417.179 167772161.180 -1 ------- null}
+ -t 29.1000000000001 -s 0 -d 1 -p ack -e 40 -c 0 -i 19 -a 0 -x {167772161.179 167772417.180 1 ------- null}
- -t 29.1000000000001 -s 0 -d 1 -p ack -e 40 -c 0 -i 19 -a 0 -x {167772161.179 167772417.180 1 ------- null}
h -t 29.1000000000001 -s 0 -d 1 -p ack -e 40 -c 0 -i 19 -a 0 -x {167772161.179 167772417.180 -1 ------- null}
r -t 29.1013200000001 -s 1 -d 0 -p ack -e 40 -c 0 -i 18 -a 0 -x {167772417.179 167772161.180 1 ------- null}
r -t 29.1013200000001 -s 0 -d 1 -p ack -e 40 -c 0 -i 19 -a 0 -x {167772161.179 167772417.180 1 ------- null}
+ -t 58.015512 -s 0 -d 1 -p tcp -e 59 -c 0 -i 20 -a 0 -x {167772161.180 167772417.179 68 ---A--- null}
- -t 58.015512 -s 0 -d 1 -p tcp -e 59 -c 0 -i 20 -a 0 -x {167772161.180 167772417.179 68 ---A--- null}
h -t 58.015512 -s 0 -d 1 -p tcp -e 59 -c 0 -i 20 -a 0 -x {167772161.180 167772417.179 -1 ---A--- null}
+ -t 58.015512 -s 1 -d 0 -p tcp -e 59 -c 0 -i 21 -a 0 -x {167772417.180 167772161.179 68 ---A--- null}
- -t 58.015512 -s 1 -d 0 -p tcp -e 59 -c 0 -i 21 -a 0 -x {167772417.180 167772161.179 68 ---A--- null}
h -t 58.015512 -s 1 -d 0 -p tcp -e 59 -c 0 -i 21 -a 0 -x {167772417.180 167772161.179 -1 ---A--- null}
r -t 58.016984 -s 0 -d 1 -p tcp -e 59 -c 0 -i 20 -a 0 -x {167772161.180 167772417.179 68 ---A--- null}
r -t 58.016984 -s 1 -d 0 -p tcp -e 59 -c 0 -i 21 -a 0 -x {167772417.180 167772161.179 68 ---A--- null}
+ -t 58.1000000000006 -s 1 -d 0 -p ack -e 40 -c 0 -i 22 -a 0 -x {167772417.179 167772161.180 1 ------- null}
- -t 58.1000000000006 -s 1 -d 0 -p ack -e 40 -c 0 -i 22 -a 0 -x {167772417.179 167772161.180 1 ------- null}
h -t 58.1000000000006 -s 1 -d 0 -p ack -e 40 -c 0 -i 22 -a 0 -x {167772417.179 167772161.180 -1 ------- null}
+ -t 58.1000000000006 -s 0 -d 1 -p ack -e 40 -c 0 -i 23 -a 0 -x {167772161.179 167772417.180 1 ------- null}
- -t 58.1000000000006 -s 0 -d 1 -p ack -e 40 -c 0 -i 23 -a 0 -x {167772161.179 167772417.180 1 ------- null}
h -t 58.1000000000006 -s 0 -d 1 -p ack -e 40 -c 0 -i 23 -a 0 -x {167772161.179 167772417.180 -1 ------- null}
r -t 58.1013200000006 -s 1 -d 0 -p ack -e 40 -c 0 -i 22 -a 0 -x {167772417.179 167772161.180 1 ------- null}
r -t 58.1013200000006 -s 0 -d 1 -p ack -e 40 -c 0 -i 23 -a 0 -x {167772161.179 167772417.180 1 ------- null}
+ -t 87.015512 -s 0 -d 1 -p tcp -e 59 -c 0 -i 24 -a 0 -x {167772161.180 167772417.179 87 ---A--- null}
- -t 87.015512 -s 0 -d 1 -p tcp -e 59 -c 0 -i 24 -a 0 -x {167772161.180 167772417.179 87 ---A--- null}
h -t 87.015512 -s 0 -d 1 -p tcp -e 59 -c 0 -i 24 -a 0 -x {167772161.180 167772417.179 -1 ---A--- null}
+ -t 87.015512 -s 1 -d 0 -p tcp -e 59 -c 0 -i 25 -a 0 -x {167772417.180 167772161.179 87 ---A--- null}
- -t 87.015512 -s 1 -d 0 -p tcp -e 59 -c 0 -i 25 -a 0 -x {167772417.180 167772161.179 87 ---A--- null}
h -t 87.015512 -s 1 -d 0 -p tcp -e 59 -c 0 -i 25 -a 0 -x {167772417.180 167772161.179 -1 ---A--- null}
r -t 87.016984 -s 0 -d 1 -p tcp -e 59 -c 0 -i 24 -a 0 -x {167772161.180 167772417.179 87 ---A--- null}
r -t 87.016984 -s 1 -d 0 -p tcp -e 59 -c 0 -i 25 -a 0 -x {167772417.180 167772161.179 87 ---A--- null}
+ -t 87.0999999999993 -s 1 -d 0 -p ack -e 40 -c 0 -i 26 -a 0 -x {167772417.179 167772161.180 1 ------- null}
- -t 87.0999999999993 -s 1 -d 0 -p ack -e 40 -c 0 -i 26 -a 0 -x {167772417.179 167772161.180 1 ------- null}
h -t 87.0999999999993 -s 1 -d 0 -p ack -e 40 -c 0 -i 26 -a 0 -x {167772417.179 167772161.180 -1 ------- null}
+ -t 87.0999999999993 -s 0 -d 1 -p ack -e 40 -c 0 -i 27 -a 0 -x {167772161.179 167772417.180 1 ------- null}
- -t 87.0999999999993 -s 0 -d 1 -p ack -e 40 -c 0 -i 27 -a 0 -x {167772161.179 167772417.180 1 ------- null}
h -t 87.0999999999993 -s 0 -d 1 -p ack -e 40 -c 0 -i 27 -a 0 -x {167772161.179 167772417.180 -1 ------- null}
r -t 87.1013199999993 -s 1 -d 0 -p ack -e 40 -c 0 -i 26 -a 0 -x {167772417.179 167772161.180 1 ------- null}
r -t 87.1013199999993 -s 0 -d 1 -p ack -e 40 -c 0 -i 27 -a 0 -x {167772161.179 167772417.180 1 ------- null}
+ -t 116.015512 -s 0 -d 1 -p tcp -e 59 -c 0 -i 28 -a 0 -x {167772161.180 167772417.179 106 ---A--- null}
- -t 116.015512 -s 0 -d 1 -p tcp -e 59 -c 0 -i 28 -a 0 -x {167772161.180 167772417.179 106 ---A--- null}
h -t 116.015512 -s 0 -d 1 -p tcp -e 59 -c 0 -i 28 -a 0 -x {167772161.180 167772417.179 -1 ---A--- null}
+ -t 116.015512 -s 1 -d 0 -p tcp -e 59 -c 0 -i 29 -a 0 -x {167772417.180 167772161.179 106 ---A--- null}
- -t 116.015512 -s 1 -d 0 -p tcp -e 59 -c 0 -i 29 -a 0 -x {167772417.180 167772161.179 106 ---A--- null}
h -t 116.015512 -s 1 -d 0 -p tcp -e 59 -c 0 -i 29 -a 0 -x {167772417.180 167772161.179 -1 ---A--- null}
r -t 116.016984 -s 0 -d 1 -p tcp -e 59 -c 0 -i 28 -a 0 -x {167772161.180 167772417.179 106 ---A--- null}
r -t 116.016984 -s 1 -d 0 -p tcp -e 59 -c 0 -i 29 -a 0 -x {167772417.180 167772161.179 106 ---A--- null}
+ -t 116.099999999998 -s 1 -d 0 -p ack -e 40 -c 0 -i 30 -a 0 -x {167772417.179 167772161.180 1 ------- null}
- -t 116.099999999998 -s 1 -d 0 -p ack -e 40 -c 0 -i 30 -a 0 -x {167772417.179 167772161.180 1 ------- null}
h -t 116.099999999998 -s 1 -d 0 -p ack -e 40 -c 0 -i 30 -a 0 -x {167772417.179 167772161.180 -1 ------- null}
+ -t 116.099999999998 -s 0 -d 1 -p ack -e 40 -c 0 -i 31 -a 0 -x {167772161.179 167772417.180 1 ------- null}
- -t 116.099999999998 -s 0 -d 1 -p ack -e 40 -c 0 -i 31 -a 0 -x {167772161.179 167772417.180 1 ------- null}
h -t 116.099999999998 -s 0 -d 1 -p ack -e 40 -c 0 -i 31 -a 0 -x {167772161.179 167772417.180 -1 ------- null}
r -t 116.101319999998 -s 1 -d 0 -p ack -e 40 -c 0 -i 30 -a 0 -x {167772417.179 167772161.180 1 ------- null}
r -t 116.101319999998 -s 0 -d 1 -p ack -e 40 -c 0 -i 31 -a 0 -x {167772161.179 167772417.180 1 ------- null}
+ -t 145.015512 -s 0 -d 1 -p tcp -e 59 -c 0 -i 32 -a 0 -x {167772161.180 167772417.179 125 ---A--- null}
- -t 145.015512 -s 0 -d 1 -p tcp -e 59 -c 0 -i 32 -a 0 -x {167772161.180 167772417.179 125 ---A--- null}
h -t 145.015512 -s 0 -d 1 -p tcp -e 59 -c 0 -i 32 -a 0 -x {167772161.180 167772417.179 -1 ---A--- null}
+ -t 145.015512 -s 1 -d 0 -p tcp -e 59 -c 0 -i 33 -a 0 -x {167772417.180 167772161.179 125 ---A--- null}
- -t 145.015512 -s 1 -d 0 -p tcp -e 59 -c 0 -i 33 -a 0 -x {167772417.180 167772161.179 125 ---A--- null}
h -t 145.015512 -s 1 -d 0 -p tcp -e 59 -c 0 -i 33 -a 0 -x {167772417.180 167772161.179 -1 ---A--- null}
r -t 145.016984 -s 0 -d 1 -p tcp -e 59 -c 0 -i 32 -a 0 -x {167772161.180 167772417.179 125 ---A--- null}
r -t 145.016984 -s 1 -d 0 -p tcp -e 59 -c 0 -i 33 -a 0 -x {167772417.180 167772161.179 125 ---A--- null}
+ -t 145.099999999996 -s 1 -d 0 -p ack -e 40 -c 0 -i 34 -a 0 -x {167772417.179 167772161.180 1 ------- null}
- -t 145.099999999996 -s 1 -d 0 -p ack -e 40 -c 0 -i 34 -a 0 -x {167772417.179 167772161.180 1 ------- null}
h -t 145.099999999996 -s 1 -d 0 -p ack -e 40 -c 0 -i 34 -a 0 -x {167772417.179 167772161.180 -1 ------- null}
+ -t 145.099999999996 -s 0 -d 1 -p ack -e 40 -c 0 -i 35 -a 0 -x {167772161.179 167772417.180 1 ------- null}
- -t 145.099999999996 -s 0 -d 1 -p ack -e 40 -c 0 -i 35 -a 0 -x {167772161.179 167772417.180 1 ------- null}
h -t 145.099999999996 -s 0 -d 1 -p ack -e 40 -c 0 -i 35 -a 0 -x {167772161.179 167772417.180 -1 ------- null}
r -t 145.101319999996 -s 1 -d 0 -p ack -e 40 -c 0 -i 34 -a 0 -x {167772417.179 167772161.180 1 ------- null}
r -t 145.101319999996 -s 0 -d 1 -p ack -e 40 -c 0 -i 35 -a 0 -x {167772161.179 167772417.180 1 ------- null}
+ -t 174.015512 -s 0 -d 1 -p tcp -e 59 -c 0 -i 36 -a 0 -x {167772161.180 167772417.179 144 ---A--- null}
- -t 174.015512 -s 0 -d 1 -p tcp -e 59 -c 0 -i 36 -a 0 -x {167772161.180 167772417.179 144 ---A--- null}
h -t 174.015512 -s 0 -d 1 -p tcp -e 59 -c 0 -i 36 -a 0 -x {167772161.180 167772417.179 -1 ---A--- null}
+ -t 174.015512 -s 1 -d 0 -p tcp -e 59 -c 0 -i 37 -a 0 -x {167772417.180 167772161.179 144 ---A--- null}
- -t 174.015512 -s 1 -d 0 -p tcp -e 59 -c 0 -i 37 -a 0 -x {167772417.180 167772161.179 144 ---A--- null}
h -t 174.015512 -s 1 -d 0 -p tcp -e 59 -c 0 -i 37 -a 0 -x {167772417.180 167772161.179 -1 ---A--- null}
r -t 174.016984 -s 0 -d 1 -p tcp -e 59 -c 0 -i 36 -a 0 -x {167772161.180 167772417.179 144 ---A--- null}
r -t 174.016984 -s 1 -d 0 -p tcp -e 59 -c 0 -i 37 -a 0 -x {167772417.180 167772161.179 144 ---A--- null}
+ -t 174.099999999994 -s 1 -d 0 -p ack -e 40 -c 0 -i 38 -a 0 -x {167772417.179 167772161.180 1 ------- null}
- -t 174.099999999994 -s 1 -d 0 -p ack -e 40 -c 0 -i 38 -a 0 -x {167772417.179 167772161.180 1 ------- null}
h -t 174.099999999994 -s 1 -d 0 -p ack -e 40 -c 0 -i 38 -a 0 -x {167772417.179 167772161.180 -1 ------- null}
+ -t 174.099999999994 -s 0 -d 1 -p ack -e 40 -c 0 -i 39 -a 0 -x {167772161.179 167772417.180 1 ------- null}
- -t 174.099999999994 -s 0 -d 1 -p ack -e 40 -c 0 -i 39 -a 0 -x {167772161.179 167772417.180 1 ------- null}
h -t 174.099999999994 -s 0 -d 1 -p ack -e 40 -c 0 -i 39 -a 0 -x {167772161.179 167772417.180 -1 ------- null}
r -t 174.101319999994 -s 1 -d 0 -p ack -e 40 -c 0 -i 38 -a 0 -x {167772417.179 167772161.180 1 ------- null}
r -t 174.101319999994 -s 0 -d 1 -p ack -e 40 -c 0 -i 39 -a 0 -x {167772161.179 167772417.180 1 ------- null}
+ -t 203.015512 -s 0 -d 1 -p tcp -e 59 -c 0 -i 40 -a 0 -x {167772161.180 167772417.179 163 ---A--- null}
- -t 203.015512 -s 0 -d 1 -p tcp -e 59 -c 0 -i 40 -a 0 -x {167772161.180 167772417.179 163 ---A--- null}
h -t 203.015512 -s 0 -d 1 -p tcp -e 59 -c 0 -i 40 -a 0 -x {167772161.180 167772417.179 -1 ---A--- null}
+ -t 203.015512 -s 1 -d 0 -p tcp -e 59 -c 0 -i 41 -a 0 -x {167772417.180 167772161.179 163 ---A--- null}
- -t 203.015512 -s 1 -d 0 -p tcp -e 59 -c 0 -i 41 -a 0 -x {167772417.180 167772161.179 163 ---A--- null}
h -t 203.015512 -s 1 -d 0 -p tcp -e 59 -c 0 -i 41 -a 0 -x {167772417.180 167772161.179 -1 ---A--- null}
r -t 203.016984 -s 0 -d 1 -p tcp -e 59 -c 0 -i 40 -a 0 -x {167772161.180 167772417.179 163 ---A--- null}
r -t 203.016984 -s 1 -d 0 -p tcp -e 59 -c 0 -i 41 -a 0 -x {167772417.180 167772161.179 163 ---A--- null}
+ -t 203.099999999993 -s 1 -d 0 -p ack -e 40 -c 0 -i 42 -a 0 -x {167772417.179 167772161.180 1 ------- null}
- -t 203.099999999993 -s 1 -d 0 -p ack -e 40 -c 0 -i 42 -a 0 -x {167772417.179 167772161.180 1 ------- null}
h -t 203.099999999993 -s 1 -d 0 -p ack -e 40 -c 0 -i 42 -a 0 -x {167772417.179 167772161.180 -1 ------- null}
+ -t 203.099999999993 -s 0 -d 1 -p ack -e 40 -c 0 -i 43 -a 0 -x {167772161.179 167772417.180 1 ------- null}
- -t 203.099999999993 -s 0 -d 1 -p ack -e 40 -c 0 -i 43 -a 0 -x {167772161.179 167772417.180 1 ------- null}
h -t 203.099999999993 -s 0 -d 1 -p ack -e 40 -c 0 -i 43 -a 0 -x {167772161.179 167772417.180 -1 ------- null}
r -t 203.101319999993 -s 1 -d 0 -p ack -e 40 -c 0 -i 42 -a 0 -x {167772417.179 167772161.180 1 ------- null}
r -t 203.101319999993 -s 0 -d 1 -p ack -e 40 -c 0 -i 43 -a 0 -x {167772161.179 167772417.180 1 ------- null}
+ -t 232.015512 -s 0 -d 1 -p tcp -e 59 -c 0 -i 44 -a 0 -x {167772161.180 167772417.179 182 ---A--- null}
- -t 232.015512 -s 0 -d 1 -p tcp -e 59 -c 0 -i 44 -a 0 -x {167772161.180 167772417.179 182 ---A--- null}
h -t 232.015512 -s 0 -d 1 -p tcp -e 59 -c 0 -i 44 -a 0 -x {167772161.180 167772417.179 -1 ---A--- null}
+ -t 232.015512 -s 1 -d 0 -p tcp -e 59 -c 0 -i 45 -a 0 -x {167772417.180 167772161.179 182 ---A--- null}
- -t 232.015512 -s 1 -d 0 -p tcp -e 59 -c 0 -i 45 -a 0 -x {167772417.180 167772161.179 182 ---A--- null}
h -t 232.015512 -s 1 -d 0 -p tcp -e 59 -c 0 -i 45 -a 0 -x {167772417.180 167772161.179 -1 ---A--- null}
r -t 232.016984 -s 0 -d 1 -p tcp -e 59 -c 0 -i 44 -a 0 -x {167772161.180 167772417.179 182 ---A--- null}
r -t 232.016984 -s 1 -d 0 -p tcp -e 59 -c 0 -i 45 -a 0 -x {167772417.180 167772161.179 182 ---A--- null}
+ -t 232.099999999991 -s 1 -d 0 -p ack -e 40 -c 0 -i 46 -a 0 -x {167772417.179 167772161.180 1 ------- null}
- -t 232.099999999991 -s 1 -d 0 -p ack -e 40 -c 0 -i 46 -a 0 -x {167772417.179 167772161.180 1 ------- null}
h -t 232.099999999991 -s 1 -d 0 -p ack -e 40 -c 0 -i 46 -a 0 -x {167772417.179 167772161.180 -1 ------- null}
+ -t 232.099999999991 -s 0 -d 1 -p ack -e 40 -c 0 -i 47 -a 0 -x {167772161.179 167772417.180 1 ------- null}
- -t 232.099999999991 -s 0 -d 1 -p ack -e 40 -c 0 -i 47 -a 0 -x {167772161.179 167772417.180 1 ------- null}
h -t 232.099999999991 -s 0 -d 1 -p ack -e 40 -c 0 -i 47 -a 0 -x {167772161.179 167772417.180 -1 ------- null}
r -t 232.101319999991 -s 1 -d 0 -p ack -e 40 -c 0 -i 46 -a 0 -x {167772417.179 167772161.180 1 ------- null}
r -t 232.101319999991 -s 0 -d 1 -p ack -e 40 -c 0 -i 47 -a 0 -x {167772161.179 167772417.180 1 ------- null}
+ -t 261.015512 -s 0 -d 1 -p tcp -e 59 -c 0 -i 48 -a 0 -x {167772161.180 167772417.179 201 ---A--- null}
- -t 261.015512 -s 0 -d 1 -p tcp -e 59 -c 0 -i 48 -a 0 -x {167772161.180 167772417.179 201 ---A--- null}
h -t 261.015512 -s 0 -d 1 -p tcp -e 59 -c 0 -i 48 -a 0 -x {167772161.180 167772417.179 -1 ---A--- null}
+ -t 261.015512 -s 1 -d 0 -p tcp -e 59 -c 0 -i 49 -a 0 -x {167772417.180 167772161.179 201 ---A--- null}
- -t 261.015512 -s 1 -d 0 -p tcp -e 59 -c 0 -i 49 -a 0 -x {167772417.180 167772161.179 201 ---A--- null}
h -t 261.015512 -s 1 -d 0 -p tcp -e 59 -c 0 -i 49 -a 0 -x {167772417.180 167772161.179 -1 ---A--- null}
r -t 261.016984 -s 0 -d 1 -p tcp -e 59 -c 0 -i 48 -a 0 -x {167772161.180 167772417.179 201 ---A--- null}
r -t 261.016984 -s 1 -d 0 -p tcp -e 59 -c 0 -i 49 -a 0 -x {167772417.180 167772161.179 201 ---A--- null}
+ -t 261.099999999991 -s 1 -d 0 -p ack -e 40 -c 0 -i 50 -a 0 -x {167772417.179 167772161.180 1 ------- null}
- -t 261.099999999991 -s 1 -d 0 -p ack -e 40 -c 0 -i 50 -a 0 -x {167772417.179 167772161.180 1 ------- null}
h -t 261.099999999991 -s 1 -d 0 -p ack -e 40 -c 0 -i 50 -a 0 -x {167772417.179 167772161.180 -1 ------- null}
+ -t 261.099999999991 -s 0 -d 1 -p ack -e 40 -c 0 -i 51 -a 0 -x {167772161.179 167772417.180 1 ------- null}
- -t 261.099999999991 -s 0 -d 1 -p ack -e 40 -c 0 -i 51 -a 0 -x {167772161.179 167772417.180 1 ------- null}
h -t 261.099999999991 -s 0 -d 1 -p ack -e 40 -c 0 -i 51 -a 0 -x {167772161.179 167772417.180 -1 ------- null}
r -t 261.101319999991 -s 1 -d 0 -p ack -e 40 -c 0 -i 50 -a 0 -x {167772417.179 167772161.180 1 ------- null}
r -t 261.101319999991 -s 0 -d 1 -p ack -e 40 -c 0 -i 51 -a 0 -x {167772161.179 167772417.180 1 ------- null}
+ -t 290.015512 -s 0 -d 1 -p tcp -e 59 -c 0 -i 52 -a 0 -x {167772161.180 167772417.179 220 ---A--- null}
- -t 290.015512 -s 0 -d 1 -p tcp -e 59 -c 0 -i 52 -a 0 -x {167772161.180 167772417.179 220 ---A--- null}
h -t 290.015512 -s 0 -d 1 -p tcp -e 59 -c 0 -i 52 -a 0 -x {167772161.180 167772417.179 -1 ---A--- null}
+ -t 290.015512 -s 1 -d 0 -p tcp -e 59 -c 0 -i 53 -a 0 -x {167772417.180 167772161.179 220 ---A--- null}
- -t 290.015512 -s 1 -d 0 -p tcp -e 59 -c 0 -i 53 -a 0 -x {167772417.180 167772161.179 220 ---A--- null}
h -t 290.015512 -s 1 -d 0 -p tcp -e 59 -c 0 -i 53 -a 0 -x {167772417.180 167772161.179 -1 ---A--- null}
r -t 290.016984 -s 0 -d 1 -p tcp -e 59 -c 0 -i 52 -a 0 -x {167772161.180 167772417.179 220 ---A--- null}
r -t 290.016984 -s 1 -d 0 -p tcp -e 59 -c 0 -i 53 -a 0 -x {167772417.180 167772161.179 220 ---A--- null}
+ -t 290.099999999997 -s 1 -d 0 -p ack -e 40 -c 0 -i 54 -a 0 -x {167772417.179 167772161.180 1 ------- null}
- -t 290.099999999997 -s 1 -d 0 -p ack -e 40 -c 0 -i 54 -a 0 -x {167772417.179 167772161.180 1 ------- null}
h -t 290.099999999997 -s 1 -d 0 -p ack -e 40 -c 0 -i 54 -a 0 -x {167772417.179 167772161.180 -1 ------- null}
+ -t 290.099999999997 -s 0 -d 1 -p ack -e 40 -c 0 -i 55 -a 0 -x {167772161.179 167772417.180 1 ------- null}
- -t 290.099999999997 -s 0 -d 1 -p ack -e 40 -c 0 -i 55 -a 0 -x {167772161.179 167772417.180 1 ------- null}
h -t 290.099999999997 -s 0 -d 1 -p ack -e 40 -c 0 -i 55 -a 0 -x {167772161.179 167772417.180 -1 ------- null}
r -t 290.101319999997 -s 1 -d 0 -p ack -e 40 -c 0 -i 54 -a 0 -x {167772417.179 167772161.180 1 ------- null}
r -t 290.101319999997 -s 0 -d 1 -p ack -e 40 -c 0 -i 55 -a 0 -x {167772161.179 167772417.180 1 ------- null}
