V -t * -v 1.0a5 -a 0
A -t * -n 1 -p 0 -o 0xffffffff -c 31 -a 1
A -t * -h 1 -m 2147483647 -s 0
n -t * -a 167772417 -s 4 -S UP -v circle -c purple -i purple
n -t * -a 167772929 -s 0 -S UP -v circle -c red -i red
n -t * -a 167772673 -s 5 -S UP -v circle -c purple -i purple
n -t * -a 167773185 -s 1 -S UP -v circle -c green -i green
n -t * -a 167773441 -s 2 -S UP -v circle -c black -i black
n -t * -a 167772161 -s 3 -S UP -v circle -c purple -i purple
l -t * -s 2 -d 5 -S UP -r 15000000 -D 0.01 -c black
l -t * -s 0 -d 3 -S UP -r 15000000 -D 0.01 -c orange
l -t * -s 4 -d 3 -S UP -r 15000000 -D 0.01 -c orange
l -t * -s 4 -d 5 -S UP -r 15000000 -D 0.01 -c black
l -t * -s 3 -d 5 -S UP -r 15000000 -D 0.01 -c black
l -t * -s 1 -d 4 -S UP -r 15000000 -D 0.01 -c orange
+ -t 0.01 -s 0 -d 3 -p tcp -e 40 -c 0 -i 0 -a 0 -x {167772929.180 167772161.179 0 ------- null}
- -t 0.01 -s 0 -d 3 -p tcp -e 40 -c 0 -i 0 -a 0 -x {167772929.180 167772161.179 0 ------- null}
h -t 0.01 -s 0 -d 3 -p tcp -e 40 -c 0 -i 0 -a 0 -x {167772929.180 167772161.179 -1 ------- null}
+ -t 0.01 -s 1 -d 4 -p tcp -e 40 -c 0 -i 1 -a 0 -x {167773185.180 167772417.179 0 ------- null}
- -t 0.01 -s 1 -d 4 -p tcp -e 40 -c 0 -i 1 -a 0 -x {167773185.180 167772417.179 0 ------- null}
h -t 0.01 -s 1 -d 4 -p tcp -e 40 -c 0 -i 1 -a 0 -x {167773185.180 167772417.179 -1 ------- null}
+ -t 0.01 -s 2 -d 5 -p tcp -e 40 -c 0 -i 2 -a 0 -x {167773441.180 167772673.179 0 ------- null}
- -t 0.01 -s 2 -d 5 -p tcp -e 40 -c 0 -i 2 -a 0 -x {167773441.180 167772673.179 0 ------- null}
h -t 0.01 -s 2 -d 5 -p tcp -e 40 -c 0 -i 2 -a 0 -x {167773441.180 167772673.179 -1 ------- null}
+ -t 0.01 -s 3 -d 0 -p tcp -e 40 -c 0 -i 3 -a 0 -x {167772161.180 167772929.179 0 ------- null}
- -t 0.01 -s 3 -d 0 -p tcp -e 40 -c 0 -i 3 -a 0 -x {167772161.180 167772929.179 0 ------- null}
h -t 0.01 -s 3 -d 0 -p tcp -e 40 -c 0 -i 3 -a 0 -x {167772161.180 167772929.179 -1 ------- null}
+ -t 0.01 -s 3 -d 4 -p tcp -e 40 -c 0 -i 4 -a 0 -x {167772161.181 167772417.179 0 ------- null}
- -t 0.01 -s 3 -d 4 -p tcp -e 40 -c 0 -i 4 -a 0 -x {167772161.181 167772417.179 0 ------- null}
h -t 0.01 -s 3 -d 4 -p tcp -e 40 -c 0 -i 4 -a 0 -x {167772161.181 167772417.179 -1 ------- null}
+ -t 0.01 -s 3 -d 5 -p tcp -e 40 -c 0 -i 5 -a 0 -x {167772161.182 167772673.179 0 ------- null}
- -t 0.01 -s 3 -d 5 -p tcp -e 40 -c 0 -i 5 -a 0 -x {167772161.182 167772673.179 0 ------- null}
h -t 0.01 -s 3 -d 5 -p tcp -e 40 -c 0 -i 5 -a 0 -x {167772161.182 167772673.179 -1 ------- null}
+ -t 0.01 -s 4 -d 1 -p tcp -e 40 -c 0 -i 6 -a 0 -x {167772417.180 167773185.179 0 ------- null}
- -t 0.01 -s 4 -d 1 -p tcp -e 40 -c 0 -i 6 -a 0 -x {167772417.180 167773185.179 0 ------- null}
h -t 0.01 -s 4 -d 1 -p tcp -e 40 -c 0 -i 6 -a 0 -x {167772417.180 167773185.179 -1 ------- null}
+ -t 0.01 -s 4 -d 3 -p tcp -e 40 -c 0 -i 7 -a 0 -x {167772417.181 167772161.179 0 ------- null}
- -t 0.01 -s 4 -d 3 -p tcp -e 40 -c 0 -i 7 -a 0 -x {167772417.181 167772161.179 0 ------- null}
h -t 0.01 -s 4 -d 3 -p tcp -e 40 -c 0 -i 7 -a 0 -x {167772417.181 167772161.179 -1 ------- null}
+ -t 0.01 -s 4 -d 5 -p tcp -e 40 -c 0 -i 8 -a 0 -x {167772417.182 167772673.179 0 ------- null}
- -t 0.01 -s 4 -d 5 -p tcp -e 40 -c 0 -i 8 -a 0 -x {167772417.182 167772673.179 0 ------- null}
h -t 0.01 -s 4 -d 5 -p tcp -e 40 -c 0 -i 8 -a 0 -x {167772417.182 167772673.179 -1 ------- null}
+ -t 0.01 -s 5 -d 2 -p tcp -e 40 -c 0 -i 9 -a 0 -x {167772673.180 167773441.179 0 ------- null}
- -t 0.01 -s 5 -d 2 -p tcp -e 40 -c 0 -i 9 -a 0 -x {167772673.180 167773441.179 0 ------- null}
h -t 0.01 -s 5 -d 2 -p tcp -e 40 -c 0 -i 9 -a 0 -x {167772673.180 167773441.179 -1 ------- null}
+ -t 0.01 -s 5 -d 3 -p tcp -e 40 -c 0 -i 10 -a 0 -x {167772673.181 167772161.179 0 ------- null}
- -t 0.01 -s 5 -d 3 -p tcp -e 40 -c 0 -i 10 -a 0 -x {167772673.181 167772161.179 0 ------- null}
h -t 0.01 -s 5 -d 3 -p tcp -e 40 -c 0 -i 10 -a 0 -x {167772673.181 167772161.179 -1 ------- null}
+ -t 0.01 -s 5 -d 4 -p tcp -e 40 -c 0 -i 11 -a 0 -x {167772673.182 167772417.179 0 ------- null}
- -t 0.01 -s 5 -d 4 -p tcp -e 40 -c 0 -i 11 -a 0 -x {167772673.182 167772417.179 0 ------- null}
h -t 0.01 -s 5 -d 4 -p tcp -e 40 -c 0 -i 11 -a 0 -x {167772673.182 167772417.179 -1 ------- null}
r -t 0.0200213333333333 -s 0 -d 3 -p tcp -e 40 -c 0 -i 0 -a 0 -x {167772929.180 167772161.179 0 ------- null}
+ -t 0.0200213333333333 -s 3 -d 0 -p ack -e 40 -c 0 -i 12 -a 0 -x {167772161.179 167772929.180 0 ------- null}
- -t 0.0200213333333333 -s 3 -d 0 -p ack -e 40 -c 0 -i 12 -a 0 -x {167772161.179 167772929.180 0 ------- null}
h -t 0.0200213333333333 -s 3 -d 0 -p ack -e 40 -c 0 -i 12 -a 0 -x {167772161.179 167772929.180 -1 ------- null}
r -t 0.0200213333333333 -s 1 -d 4 -p tcp -e 40 -c 0 -i 1 -a 0 -x {167773185.180 167772417.179 0 ------- null}
+ -t 0.0200213333333333 -s 4 -d 1 -p ack -e 40 -c 0 -i 13 -a 0 -x {167772417.179 167773185.180 0 ------- null}
- -t 0.0200213333333333 -s 4 -d 1 -p ack -e 40 -c 0 -i 13 -a 0 -x {167772417.179 167773185.180 0 ------- null}
h -t 0.0200213333333333 -s 4 -d 1 -p ack -e 40 -c 0 -i 13 -a 0 -x {167772417.179 167773185.180 -1 ------- null}
r -t 0.0200213333333333 -s 2 -d 5 -p tcp -e 40 -c 0 -i 2 -a 0 -x {167773441.180 167772673.179 0 ------- null}
+ -t 0.0200213333333333 -s 5 -d 2 -p ack -e 40 -c 0 -i 14 -a 0 -x {167772673.179 167773441.180 0 ------- null}
- -t 0.0200213333333333 -s 5 -d 2 -p ack -e 40 -c 0 -i 14 -a 0 -x {167772673.179 167773441.180 0 ------- null}
h -t 0.0200213333333333 -s 5 -d 2 -p ack -e 40 -c 0 -i 14 -a 0 -x {167772673.179 167773441.180 -1 ------- null}
r -t 0.0200213333333333 -s 3 -d 0 -p tcp -e 40 -c 0 -i 3 -a 0 -x {167772161.180 167772929.179 0 ------- null}
+ -t 0.0200213333333333 -s 0 -d 3 -p ack -e 40 -c 0 -i 15 -a 0 -x {167772929.179 167772161.180 0 ------- null}
- -t 0.0200213333333333 -s 0 -d 3 -p ack -e 40 -c 0 -i 15 -a 0 -x {167772929.179 167772161.180 0 ------- null}
h -t 0.0200213333333333 -s 0 -d 3 -p ack -e 40 -c 0 -i 15 -a 0 -x {167772929.179 167772161.180 -1 ------- null}
r -t 0.0200213333333333 -s 3 -d 4 -p tcp -e 40 -c 0 -i 4 -a 0 -x {167772161.181 167772417.179 0 ------- null}
+ -t 0.0200213333333333 -s 4 -d 3 -p ack -e 40 -c 0 -i 16 -a 0 -x {167772417.179 167772161.181 0 ------- null}
- -t 0.0200213333333333 -s 4 -d 3 -p ack -e 40 -c 0 -i 16 -a 0 -x {167772417.179 167772161.181 0 ------- null}
h -t 0.0200213333333333 -s 4 -d 3 -p ack -e 40 -c 0 -i 16 -a 0 -x {167772417.179 167772161.181 -1 ------- null}
r -t 0.0200213333333333 -s 3 -d 5 -p tcp -e 40 -c 0 -i 5 -a 0 -x {167772161.182 167772673.179 0 ------- null}
+ -t 0.0200213333333333 -s 5 -d 3 -p ack -e 40 -c 0 -i 17 -a 0 -x {167772673.179 167772161.182 0 ------- null}
- -t 0.0200213333333333 -s 5 -d 3 -p ack -e 40 -c 0 -i 17 -a 0 -x {167772673.179 167772161.182 0 ------- null}
h -t 0.0200213333333333 -s 5 -d 3 -p ack -e 40 -c 0 -i 17 -a 0 -x {167772673.179 167772161.182 -1 ------- null}
r -t 0.0200213333333333 -s 4 -d 1 -p tcp -e 40 -c 0 -i 6 -a 0 -x {167772417.180 167773185.179 0 ------- null}
+ -t 0.0200213333333333 -s 1 -d 4 -p ack -e 40 -c 0 -i 18 -a 0 -x {167773185.179 167772417.180 0 ------- null}
- -t 0.0200213333333333 -s 1 -d 4 -p ack -e 40 -c 0 -i 18 -a 0 -x {167773185.179 167772417.180 0 ------- null}
h -t 0.0200213333333333 -s 1 -d 4 -p ack -e 40 -c 0 -i 18 -a 0 -x {167773185.179 167772417.180 -1 ------- null}
r -t 0.0200213333333333 -s 4 -d 3 -p tcp -e 40 -c 0 -i 7 -a 0 -x {167772417.181 167772161.179 0 ------- null}
+ -t 0.0200213333333333 -s 3 -d 4 -p ack -e 40 -c 0 -i 19 -a 0 -x {167772161.179 167772417.181 0 ------- null}
- -t 0.0200213333333333 -s 3 -d 4 -p ack -e 40 -c 0 -i 19 -a 0 -x {167772161.179 167772417.181 0 ------- null}
h -t 0.0200213333333333 -s 3 -d 4 -p ack -e 40 -c 0 -i 19 -a 0 -x {167772161.179 167772417.181 -1 ------- null}
r -t 0.0200213333333333 -s 4 -d 5 -p tcp -e 40 -c 0 -i 8 -a 0 -x {167772417.182 167772673.179 0 ------- null}
+ -t 0.0200213333333333 -s 5 -d 4 -p ack -e 40 -c 0 -i 20 -a 0 -x {167772673.179 167772417.182 0 ------- null}
- -t 0.0200213333333333 -s 5 -d 4 -p ack -e 40 -c 0 -i 20 -a 0 -x {167772673.179 167772417.182 0 ------- null}
h -t 0.0200213333333333 -s 5 -d 4 -p ack -e 40 -c 0 -i 20 -a 0 -x {167772673.179 167772417.182 -1 ------- null}
r -t 0.0200213333333333 -s 5 -d 2 -p tcp -e 40 -c 0 -i 9 -a 0 -x {167772673.180 167773441.179 0 ------- null}
+ -t 0.0200213333333333 -s 2 -d 5 -p ack -e 40 -c 0 -i 21 -a 0 -x {167773441.179 167772673.180 0 ------- null}
- -t 0.0200213333333333 -s 2 -d 5 -p ack -e 40 -c 0 -i 21 -a 0 -x {167773441.179 167772673.180 0 ------- null}
h -t 0.0200213333333333 -s 2 -d 5 -p ack -e 40 -c 0 -i 21 -a 0 -x {167773441.179 167772673.180 -1 ------- null}
r -t 0.0200213333333333 -s 5 -d 3 -p tcp -e 40 -c 0 -i 10 -a 0 -x {167772673.181 167772161.179 0 ------- null}
+ -t 0.0200213333333333 -s 3 -d 5 -p ack -e 40 -c 0 -i 22 -a 0 -x {167772161.179 167772673.181 0 ------- null}
- -t 0.0200213333333333 -s 3 -d 5 -p ack -e 40 -c 0 -i 22 -a 0 -x {167772161.179 167772673.181 0 ------- null}
h -t 0.0200213333333333 -s 3 -d 5 -p ack -e 40 -c 0 -i 22 -a 0 -x {167772161.179 167772673.181 -1 ------- null}
r -t 0.0200213333333333 -s 5 -d 4 -p tcp -e 40 -c 0 -i 11 -a 0 -x {167772673.182 167772417.179 0 ------- null}
+ -t 0.0200213333333333 -s 4 -d 5 -p ack -e 40 -c 0 -i 23 -a 0 -x {167772417.179 167772673.182 0 ------- null}
- -t 0.0200213333333333 -s 4 -d 5 -p ack -e 40 -c 0 -i 23 -a 0 -x {167772417.179 167772673.182 0 ------- null}
h -t 0.0200213333333333 -s 4 -d 5 -p ack -e 40 -c 0 -i 23 -a 0 -x {167772417.179 167772673.182 -1 ------- null}
r -t 0.0300426666666667 -s 3 -d 0 -p ack -e 40 -c 0 -i 12 -a 0 -x {167772161.179 167772929.180 0 ------- null}
+ -t 0.0300426666666667 -s 0 -d 3 -p tcp -e 40 -c 0 -i 24 -a 0 -x {167772929.180 167772161.179 1 ------- null}
- -t 0.0300426666666667 -s 0 -d 3 -p tcp -e 40 -c 0 -i 24 -a 0 -x {167772929.180 167772161.179 1 ------- null}
h -t 0.0300426666666667 -s 0 -d 3 -p tcp -e 40 -c 0 -i 24 -a 0 -x {167772929.180 167772161.179 -1 ------- null}
+ -t 0.0300426666666667 -s 0 -d 3 -p tcp -e 40 -c 0 -i 25 -a 0 -x {167772929.180 167772161.179 1 ------- null}
r -t 0.0300426666666667 -s 4 -d 1 -p ack -e 40 -c 0 -i 13 -a 0 -x {167772417.179 167773185.180 0 ------- null}
+ -t 0.0300426666666667 -s 1 -d 4 -p tcp -e 40 -c 0 -i 26 -a 0 -x {167773185.180 167772417.179 1 ------- null}
- -t 0.0300426666666667 -s 1 -d 4 -p tcp -e 40 -c 0 -i 26 -a 0 -x {167773185.180 167772417.179 1 ------- null}
h -t 0.0300426666666667 -s 1 -d 4 -p tcp -e 40 -c 0 -i 26 -a 0 -x {167773185.180 167772417.179 -1 ------- null}
+ -t 0.0300426666666667 -s 1 -d 4 -p tcp -e 40 -c 0 -i 27 -a 0 -x {167773185.180 167772417.179 1 ------- null}
r -t 0.0300426666666667 -s 5 -d 2 -p ack -e 40 -c 0 -i 14 -a 0 -x {167772673.179 167773441.180 0 ------- null}
+ -t 0.0300426666666667 -s 2 -d 5 -p tcp -e 40 -c 0 -i 28 -a 0 -x {167773441.180 167772673.179 1 ------- null}
- -t 0.0300426666666667 -s 2 -d 5 -p tcp -e 40 -c 0 -i 28 -a 0 -x {167773441.180 167772673.179 1 ------- null}
h -t 0.0300426666666667 -s 2 -d 5 -p tcp -e 40 -c 0 -i 28 -a 0 -x {167773441.180 167772673.179 -1 ------- null}
+ -t 0.0300426666666667 -s 2 -d 5 -p tcp -e 40 -c 0 -i 29 -a 0 -x {167773441.180 167772673.179 1 ------- null}
r -t 0.0300426666666667 -s 0 -d 3 -p ack -e 40 -c 0 -i 15 -a 0 -x {167772929.179 167772161.180 0 ------- null}
+ -t 0.0300426666666667 -s 3 -d 0 -p tcp -e 40 -c 0 -i 30 -a 0 -x {167772161.180 167772929.179 1 ------- null}
- -t 0.0300426666666667 -s 3 -d 0 -p tcp -e 40 -c 0 -i 30 -a 0 -x {167772161.180 167772929.179 1 ------- null}
h -t 0.0300426666666667 -s 3 -d 0 -p tcp -e 40 -c 0 -i 30 -a 0 -x {167772161.180 167772929.179 -1 ------- null}
+ -t 0.0300426666666667 -s 3 -d 0 -p tcp -e 40 -c 0 -i 31 -a 0 -x {167772161.180 167772929.179 1 ------- null}
r -t 0.0300426666666667 -s 4 -d 3 -p ack -e 40 -c 0 -i 16 -a 0 -x {167772417.179 167772161.181 0 ------- null}
+ -t 0.0300426666666667 -s 3 -d 4 -p tcp -e 40 -c 0 -i 32 -a 0 -x {167772161.181 167772417.179 1 ------- null}
- -t 0.0300426666666667 -s 3 -d 4 -p tcp -e 40 -c 0 -i 32 -a 0 -x {167772161.181 167772417.179 1 ------- null}
h -t 0.0300426666666667 -s 3 -d 4 -p tcp -e 40 -c 0 -i 32 -a 0 -x {167772161.181 167772417.179 -1 ------- null}
+ -t 0.0300426666666667 -s 3 -d 4 -p tcp -e 40 -c 0 -i 33 -a 0 -x {167772161.181 167772417.179 1 ------- null}
r -t 0.0300426666666667 -s 5 -d 3 -p ack -e 40 -c 0 -i 17 -a 0 -x {167772673.179 167772161.182 0 ------- null}
+ -t 0.0300426666666667 -s 3 -d 5 -p tcp -e 40 -c 0 -i 34 -a 0 -x {167772161.182 167772673.179 1 ------- null}
- -t 0.0300426666666667 -s 3 -d 5 -p tcp -e 40 -c 0 -i 34 -a 0 -x {167772161.182 167772673.179 1 ------- null}
h -t 0.0300426666666667 -s 3 -d 5 -p tcp -e 40 -c 0 -i 34 -a 0 -x {167772161.182 167772673.179 -1 ------- null}
+ -t 0.0300426666666667 -s 3 -d 5 -p tcp -e 40 -c 0 -i 35 -a 0 -x {167772161.182 167772673.179 1 ------- null}
r -t 0.0300426666666667 -s 1 -d 4 -p ack -e 40 -c 0 -i 18 -a 0 -x {167773185.179 167772417.180 0 ------- null}
+ -t 0.0300426666666667 -s 4 -d 1 -p tcp -e 40 -c 0 -i 36 -a 0 -x {167772417.180 167773185.179 1 ------- null}
- -t 0.0300426666666667 -s 4 -d 1 -p tcp -e 40 -c 0 -i 36 -a 0 -x {167772417.180 167773185.179 1 ------- null}
h -t 0.0300426666666667 -s 4 -d 1 -p tcp -e 40 -c 0 -i 36 -a 0 -x {167772417.180 167773185.179 -1 ------- null}
+ -t 0.0300426666666667 -s 4 -d 1 -p tcp -e 40 -c 0 -i 37 -a 0 -x {167772417.180 167773185.179 1 ------- null}
r -t 0.0300426666666667 -s 3 -d 4 -p ack -e 40 -c 0 -i 19 -a 0 -x {167772161.179 167772417.181 0 ------- null}
+ -t 0.0300426666666667 -s 4 -d 3 -p tcp -e 40 -c 0 -i 38 -a 0 -x {167772417.181 167772161.179 1 ------- null}
- -t 0.0300426666666667 -s 4 -d 3 -p tcp -e 40 -c 0 -i 38 -a 0 -x {167772417.181 167772161.179 1 ------- null}
h -t 0.0300426666666667 -s 4 -d 3 -p tcp -e 40 -c 0 -i 38 -a 0 -x {167772417.181 167772161.179 -1 ------- null}
+ -t 0.0300426666666667 -s 4 -d 3 -p tcp -e 40 -c 0 -i 39 -a 0 -x {167772417.181 167772161.179 1 ------- null}
r -t 0.0300426666666667 -s 5 -d 4 -p ack -e 40 -c 0 -i 20 -a 0 -x {167772673.179 167772417.182 0 ------- null}
+ -t 0.0300426666666667 -s 4 -d 5 -p tcp -e 40 -c 0 -i 40 -a 0 -x {167772417.182 167772673.179 1 ------- null}
- -t 0.0300426666666667 -s 4 -d 5 -p tcp -e 40 -c 0 -i 40 -a 0 -x {167772417.182 167772673.179 1 ------- null}
h -t 0.0300426666666667 -s 4 -d 5 -p tcp -e 40 -c 0 -i 40 -a 0 -x {167772417.182 167772673.179 -1 ------- null}
+ -t 0.0300426666666667 -s 4 -d 5 -p tcp -e 40 -c 0 -i 41 -a 0 -x {167772417.182 167772673.179 1 ------- null}
r -t 0.0300426666666667 -s 2 -d 5 -p ack -e 40 -c 0 -i 21 -a 0 -x {167773441.179 167772673.180 0 ------- null}
+ -t 0.0300426666666667 -s 5 -d 2 -p tcp -e 40 -c 0 -i 42 -a 0 -x {167772673.180 167773441.179 1 ------- null}
- -t 0.0300426666666667 -s 5 -d 2 -p tcp -e 40 -c 0 -i 42 -a 0 -x {167772673.180 167773441.179 1 ------- null}
h -t 0.0300426666666667 -s 5 -d 2 -p tcp -e 40 -c 0 -i 42 -a 0 -x {167772673.180 167773441.179 -1 ------- null}
+ -t 0.0300426666666667 -s 5 -d 2 -p tcp -e 40 -c 0 -i 43 -a 0 -x {167772673.180 167773441.179 1 ------- null}
r -t 0.0300426666666667 -s 3 -d 5 -p ack -e 40 -c 0 -i 22 -a 0 -x {167772161.179 167772673.181 0 ------- null}
+ -t 0.0300426666666667 -s 5 -d 3 -p tcp -e 40 -c 0 -i 44 -a 0 -x {167772673.181 167772161.179 1 ------- null}
- -t 0.0300426666666667 -s 5 -d 3 -p tcp -e 40 -c 0 -i 44 -a 0 -x {167772673.181 167772161.179 1 ------- null}
h -t 0.0300426666666667 -s 5 -d 3 -p tcp -e 40 -c 0 -i 44 -a 0 -x {167772673.181 167772161.179 -1 ------- null}
+ -t 0.0300426666666667 -s 5 -d 3 -p tcp -e 40 -c 0 -i 45 -a 0 -x {167772673.181 167772161.179 1 ------- null}
r -t 0.0300426666666667 -s 4 -d 5 -p ack -e 40 -c 0 -i 23 -a 0 -x {167772417.179 167772673.182 0 ------- null}
+ -t 0.0300426666666667 -s 5 -d 4 -p tcp -e 40 -c 0 -i 46 -a 0 -x {167772673.182 167772417.179 1 ------- null}
- -t 0.0300426666666667 -s 5 -d 4 -p tcp -e 40 -c 0 -i 46 -a 0 -x {167772673.182 167772417.179 1 ------- null}
h -t 0.0300426666666667 -s 5 -d 4 -p tcp -e 40 -c 0 -i 46 -a 0 -x {167772673.182 167772417.179 -1 ------- null}
+ -t 0.0300426666666667 -s 5 -d 4 -p tcp -e 40 -c 0 -i 47 -a 0 -x {167772673.182 167772417.179 1 ------- null}
- -t 0.030064 -s 0 -d 3 -p tcp -e 40 -c 0 -i 25 -a 0 -x {167772929.180 167772161.179 1 ------- null}
h -t 0.030064 -s 0 -d 3 -p tcp -e 40 -c 0 -i 25 -a 0 -x {167772929.180 167772161.179 -1 ------- null}
- -t 0.030064 -s 1 -d 4 -p tcp -e 40 -c 0 -i 27 -a 0 -x {167773185.180 167772417.179 1 ------- null}
h -t 0.030064 -s 1 -d 4 -p tcp -e 40 -c 0 -i 27 -a 0 -x {167773185.180 167772417.179 -1 ------- null}
- -t 0.030064 -s 2 -d 5 -p tcp -e 40 -c 0 -i 29 -a 0 -x {167773441.180 167772673.179 1 ------- null}
h -t 0.030064 -s 2 -d 5 -p tcp -e 40 -c 0 -i 29 -a 0 -x {167773441.180 167772673.179 -1 ------- null}
- -t 0.030064 -s 3 -d 0 -p tcp -e 40 -c 0 -i 31 -a 0 -x {167772161.180 167772929.179 1 ------- null}
h -t 0.030064 -s 3 -d 0 -p tcp -e 40 -c 0 -i 31 -a 0 -x {167772161.180 167772929.179 -1 ------- null}
- -t 0.030064 -s 3 -d 4 -p tcp -e 40 -c 0 -i 33 -a 0 -x {167772161.181 167772417.179 1 ------- null}
h -t 0.030064 -s 3 -d 4 -p tcp -e 40 -c 0 -i 33 -a 0 -x {167772161.181 167772417.179 -1 ------- null}
- -t 0.030064 -s 3 -d 5 -p tcp -e 40 -c 0 -i 35 -a 0 -x {167772161.182 167772673.179 1 ------- null}
h -t 0.030064 -s 3 -d 5 -p tcp -e 40 -c 0 -i 35 -a 0 -x {167772161.182 167772673.179 -1 ------- null}
- -t 0.030064 -s 4 -d 1 -p tcp -e 40 -c 0 -i 37 -a 0 -x {167772417.180 167773185.179 1 ------- null}
h -t 0.030064 -s 4 -d 1 -p tcp -e 40 -c 0 -i 37 -a 0 -x {167772417.180 167773185.179 -1 ------- null}
- -t 0.030064 -s 4 -d 3 -p tcp -e 40 -c 0 -i 39 -a 0 -x {167772417.181 167772161.179 1 ------- null}
h -t 0.030064 -s 4 -d 3 -p tcp -e 40 -c 0 -i 39 -a 0 -x {167772417.181 167772161.179 -1 ------- null}
- -t 0.030064 -s 4 -d 5 -p tcp -e 40 -c 0 -i 41 -a 0 -x {167772417.182 167772673.179 1 ------- null}
h -t 0.030064 -s 4 -d 5 -p tcp -e 40 -c 0 -i 41 -a 0 -x {167772417.182 167772673.179 -1 ------- null}
- -t 0.030064 -s 5 -d 2 -p tcp -e 40 -c 0 -i 43 -a 0 -x {167772673.180 167773441.179 1 ------- null}
h -t 0.030064 -s 5 -d 2 -p tcp -e 40 -c 0 -i 43 -a 0 -x {167772673.180 167773441.179 -1 ------- null}
- -t 0.030064 -s 5 -d 3 -p tcp -e 40 -c 0 -i 45 -a 0 -x {167772673.181 167772161.179 1 ------- null}
h -t 0.030064 -s 5 -d 3 -p tcp -e 40 -c 0 -i 45 -a 0 -x {167772673.181 167772161.179 -1 ------- null}
- -t 0.030064 -s 5 -d 4 -p tcp -e 40 -c 0 -i 47 -a 0 -x {167772673.182 167772417.179 1 ------- null}
h -t 0.030064 -s 5 -d 4 -p tcp -e 40 -c 0 -i 47 -a 0 -x {167772673.182 167772417.179 -1 ------- null}
r -t 0.040064 -s 0 -d 3 -p tcp -e 40 -c 0 -i 24 -a 0 -x {167772929.180 167772161.179 1 ------- null}
+ -t 0.040064 -s 3 -d 0 -p tcp -e 69 -c 0 -i 48 -a 0 -x {167772161.180 167772929.179 1 ------- null}
- -t 0.040064 -s 3 -d 0 -p tcp -e 69 -c 0 -i 48 -a 0 -x {167772161.180 167772929.179 1 ------- null}
h -t 0.040064 -s 3 -d 0 -p tcp -e 69 -c 0 -i 48 -a 0 -x {167772161.180 167772929.179 -1 ------- null}
r -t 0.040064 -s 1 -d 4 -p tcp -e 40 -c 0 -i 26 -a 0 -x {167773185.180 167772417.179 1 ------- null}
+ -t 0.040064 -s 4 -d 1 -p tcp -e 69 -c 0 -i 49 -a 0 -x {167772417.180 167773185.179 1 ------- null}
- -t 0.040064 -s 4 -d 1 -p tcp -e 69 -c 0 -i 49 -a 0 -x {167772417.180 167773185.179 1 ------- null}
h -t 0.040064 -s 4 -d 1 -p tcp -e 69 -c 0 -i 49 -a 0 -x {167772417.180 167773185.179 -1 ------- null}
r -t 0.040064 -s 2 -d 5 -p tcp -e 40 -c 0 -i 28 -a 0 -x {167773441.180 167772673.179 1 ------- null}
+ -t 0.040064 -s 5 -d 2 -p tcp -e 69 -c 0 -i 50 -a 0 -x {167772673.180 167773441.179 1 ------- null}
- -t 0.040064 -s 5 -d 2 -p tcp -e 69 -c 0 -i 50 -a 0 -x {167772673.180 167773441.179 1 ------- null}
h -t 0.040064 -s 5 -d 2 -p tcp -e 69 -c 0 -i 50 -a 0 -x {167772673.180 167773441.179 -1 ------- null}
r -t 0.040064 -s 3 -d 0 -p tcp -e 40 -c 0 -i 30 -a 0 -x {167772161.180 167772929.179 1 ------- null}
+ -t 0.040064 -s 0 -d 3 -p tcp -e 69 -c 0 -i 51 -a 0 -x {167772929.180 167772161.179 1 ------- null}
- -t 0.040064 -s 0 -d 3 -p tcp -e 69 -c 0 -i 51 -a 0 -x {167772929.180 167772161.179 1 ------- null}
h -t 0.040064 -s 0 -d 3 -p tcp -e 69 -c 0 -i 51 -a 0 -x {167772929.180 167772161.179 -1 ------- null}
r -t 0.040064 -s 3 -d 4 -p tcp -e 40 -c 0 -i 32 -a 0 -x {167772161.181 167772417.179 1 ------- null}
+ -t 0.040064 -s 4 -d 3 -p tcp -e 69 -c 0 -i 52 -a 0 -x {167772417.181 167772161.179 1 ------- null}
- -t 0.040064 -s 4 -d 3 -p tcp -e 69 -c 0 -i 52 -a 0 -x {167772417.181 167772161.179 1 ------- null}
h -t 0.040064 -s 4 -d 3 -p tcp -e 69 -c 0 -i 52 -a 0 -x {167772417.181 167772161.179 -1 ------- null}
r -t 0.040064 -s 3 -d 5 -p tcp -e 40 -c 0 -i 34 -a 0 -x {167772161.182 167772673.179 1 ------- null}
+ -t 0.040064 -s 5 -d 3 -p tcp -e 69 -c 0 -i 53 -a 0 -x {167772673.181 167772161.179 1 ------- null}
- -t 0.040064 -s 5 -d 3 -p tcp -e 69 -c 0 -i 53 -a 0 -x {167772673.181 167772161.179 1 ------- null}
h -t 0.040064 -s 5 -d 3 -p tcp -e 69 -c 0 -i 53 -a 0 -x {167772673.181 167772161.179 -1 ------- null}
r -t 0.040064 -s 4 -d 1 -p tcp -e 40 -c 0 -i 36 -a 0 -x {167772417.180 167773185.179 1 ------- null}
+ -t 0.040064 -s 1 -d 4 -p tcp -e 69 -c 0 -i 54 -a 0 -x {167773185.180 167772417.179 1 ------- null}
- -t 0.040064 -s 1 -d 4 -p tcp -e 69 -c 0 -i 54 -a 0 -x {167773185.180 167772417.179 1 ------- null}
h -t 0.040064 -s 1 -d 4 -p tcp -e 69 -c 0 -i 54 -a 0 -x {167773185.180 167772417.179 -1 ------- null}
r -t 0.040064 -s 4 -d 3 -p tcp -e 40 -c 0 -i 38 -a 0 -x {167772417.181 167772161.179 1 ------- null}
+ -t 0.040064 -s 3 -d 4 -p tcp -e 69 -c 0 -i 55 -a 0 -x {167772161.181 167772417.179 1 ------- null}
- -t 0.040064 -s 3 -d 4 -p tcp -e 69 -c 0 -i 55 -a 0 -x {167772161.181 167772417.179 1 ------- null}
h -t 0.040064 -s 3 -d 4 -p tcp -e 69 -c 0 -i 55 -a 0 -x {167772161.181 167772417.179 -1 ------- null}
r -t 0.040064 -s 4 -d 5 -p tcp -e 40 -c 0 -i 40 -a 0 -x {167772417.182 167772673.179 1 ------- null}
+ -t 0.040064 -s 5 -d 4 -p tcp -e 69 -c 0 -i 56 -a 0 -x {167772673.182 167772417.179 1 ------- null}
- -t 0.040064 -s 5 -d 4 -p tcp -e 69 -c 0 -i 56 -a 0 -x {167772673.182 167772417.179 1 ------- null}
h -t 0.040064 -s 5 -d 4 -p tcp -e 69 -c 0 -i 56 -a 0 -x {167772673.182 167772417.179 -1 ------- null}
r -t 0.040064 -s 5 -d 2 -p tcp -e 40 -c 0 -i 42 -a 0 -x {167772673.180 167773441.179 1 ------- null}
+ -t 0.040064 -s 2 -d 5 -p tcp -e 69 -c 0 -i 57 -a 0 -x {167773441.180 167772673.179 1 ------- null}
- -t 0.040064 -s 2 -d 5 -p tcp -e 69 -c 0 -i 57 -a 0 -x {167773441.180 167772673.179 1 ------- null}
h -t 0.040064 -s 2 -d 5 -p tcp -e 69 -c 0 -i 57 -a 0 -x {167773441.180 167772673.179 -1 ------- null}
r -t 0.040064 -s 5 -d 3 -p tcp -e 40 -c 0 -i 44 -a 0 -x {167772673.181 167772161.179 1 ------- null}
+ -t 0.040064 -s 3 -d 5 -p tcp -e 69 -c 0 -i 58 -a 0 -x {167772161.182 167772673.179 1 ------- null}
- -t 0.040064 -s 3 -d 5 -p tcp -e 69 -c 0 -i 58 -a 0 -x {167772161.182 167772673.179 1 ------- null}
h -t 0.040064 -s 3 -d 5 -p tcp -e 69 -c 0 -i 58 -a 0 -x {167772161.182 167772673.179 -1 ------- null}
r -t 0.040064 -s 5 -d 4 -p tcp -e 40 -c 0 -i 46 -a 0 -x {167772673.182 167772417.179 1 ------- null}
+ -t 0.040064 -s 4 -d 5 -p tcp -e 69 -c 0 -i 59 -a 0 -x {167772417.182 167772673.179 1 ------- null}
- -t 0.040064 -s 4 -d 5 -p tcp -e 69 -c 0 -i 59 -a 0 -x {167772417.182 167772673.179 1 ------- null}
h -t 0.040064 -s 4 -d 5 -p tcp -e 69 -c 0 -i 59 -a 0 -x {167772417.182 167772673.179 -1 ------- null}
r -t 0.0400853333333333 -s 0 -d 3 -p tcp -e 40 -c 0 -i 25 -a 0 -x {167772929.180 167772161.179 1 ------- null}
r -t 0.0400853333333333 -s 1 -d 4 -p tcp -e 40 -c 0 -i 27 -a 0 -x {167773185.180 167772417.179 1 ------- null}
r -t 0.0400853333333333 -s 2 -d 5 -p tcp -e 40 -c 0 -i 29 -a 0 -x {167773441.180 167772673.179 1 ------- null}
r -t 0.0400853333333333 -s 3 -d 0 -p tcp -e 40 -c 0 -i 31 -a 0 -x {167772161.180 167772929.179 1 ------- null}
r -t 0.0400853333333333 -s 3 -d 4 -p tcp -e 40 -c 0 -i 33 -a 0 -x {167772161.181 167772417.179 1 ------- null}
r -t 0.0400853333333333 -s 3 -d 5 -p tcp -e 40 -c 0 -i 35 -a 0 -x {167772161.182 167772673.179 1 ------- null}
r -t 0.0400853333333333 -s 4 -d 1 -p tcp -e 40 -c 0 -i 37 -a 0 -x {167772417.180 167773185.179 1 ------- null}
r -t 0.0400853333333333 -s 4 -d 3 -p tcp -e 40 -c 0 -i 39 -a 0 -x {167772417.181 167772161.179 1 ------- null}
r -t 0.0400853333333333 -s 4 -d 5 -p tcp -e 40 -c 0 -i 41 -a 0 -x {167772417.182 167772673.179 1 ------- null}
r -t 0.0400853333333333 -s 5 -d 2 -p tcp -e 40 -c 0 -i 43 -a 0 -x {167772673.180 167773441.179 1 ------- null}
r -t 0.0400853333333333 -s 5 -d 3 -p tcp -e 40 -c 0 -i 45 -a 0 -x {167772673.181 167772161.179 1 ------- null}
r -t 0.0400853333333333 -s 5 -d 4 -p tcp -e 40 -c 0 -i 47 -a 0 -x {167772673.182 167772417.179 1 ------- null}
r -t 0.0501008 -s 3 -d 0 -p tcp -e 69 -c 0 -i 48 -a 0 -x {167772161.180 167772929.179 1 ------- null}
r -t 0.0501008 -s 4 -d 1 -p tcp -e 69 -c 0 -i 49 -a 0 -x {167772417.180 167773185.179 1 ------- null}
r -t 0.0501008 -s 5 -d 2 -p tcp -e 69 -c 0 -i 50 -a 0 -x {167772673.180 167773441.179 1 ------- null}
r -t 0.0501008 -s 0 -d 3 -p tcp -e 69 -c 0 -i 51 -a 0 -x {167772929.180 167772161.179 1 ------- null}
r -t 0.0501008 -s 4 -d 3 -p tcp -e 69 -c 0 -i 52 -a 0 -x {167772417.181 167772161.179 1 ------- null}
r -t 0.0501008 -s 5 -d 3 -p tcp -e 69 -c 0 -i 53 -a 0 -x {167772673.181 167772161.179 1 ------- null}
r -t 0.0501008 -s 1 -d 4 -p tcp -e 69 -c 0 -i 54 -a 0 -x {167773185.180 167772417.179 1 ------- null}
r -t 0.0501008 -s 3 -d 4 -p tcp -e 69 -c 0 -i 55 -a 0 -x {167772161.181 167772417.179 1 ------- null}
r -t 0.0501008 -s 5 -d 4 -p tcp -e 69 -c 0 -i 56 -a 0 -x {167772673.182 167772417.179 1 ------- null}
r -t 0.0501008 -s 2 -d 5 -p tcp -e 69 -c 0 -i 57 -a 0 -x {167773441.180 167772673.179 1 ------- null}
r -t 0.0501008 -s 3 -d 5 -p tcp -e 69 -c 0 -i 58 -a 0 -x {167772161.182 167772673.179 1 ------- null}
r -t 0.0501008 -s 4 -d 5 -p tcp -e 69 -c 0 -i 59 -a 0 -x {167772417.182 167772673.179 1 ------- null}
+ -t 0.1 -s 3 -d 0 -p ack -e 40 -c 0 -i 60 -a 0 -x {167772161.179 167772929.180 1 ------- null}
- -t 0.1 -s 3 -d 0 -p ack -e 40 -c 0 -i 60 -a 0 -x {167772161.179 167772929.180 1 ------- null}
h -t 0.1 -s 3 -d 0 -p ack -e 40 -c 0 -i 60 -a 0 -x {167772161.179 167772929.180 -1 ------- null}
+ -t 0.1 -s 4 -d 1 -p ack -e 40 -c 0 -i 61 -a 0 -x {167772417.179 167773185.180 1 ------- null}
- -t 0.1 -s 4 -d 1 -p ack -e 40 -c 0 -i 61 -a 0 -x {167772417.179 167773185.180 1 ------- null}
h -t 0.1 -s 4 -d 1 -p ack -e 40 -c 0 -i 61 -a 0 -x {167772417.179 167773185.180 -1 ------- null}
+ -t 0.1 -s 5 -d 2 -p ack -e 40 -c 0 -i 62 -a 0 -x {167772673.179 167773441.180 1 ------- null}
- -t 0.1 -s 5 -d 2 -p ack -e 40 -c 0 -i 62 -a 0 -x {167772673.179 167773441.180 1 ------- null}
h -t 0.1 -s 5 -d 2 -p ack -e 40 -c 0 -i 62 -a 0 -x {167772673.179 167773441.180 -1 ------- null}
+ -t 0.1 -s 0 -d 3 -p ack -e 40 -c 0 -i 63 -a 0 -x {167772929.179 167772161.180 1 ------- null}
- -t 0.1 -s 0 -d 3 -p ack -e 40 -c 0 -i 63 -a 0 -x {167772929.179 167772161.180 1 ------- null}
h -t 0.1 -s 0 -d 3 -p ack -e 40 -c 0 -i 63 -a 0 -x {167772929.179 167772161.180 -1 ------- null}
+ -t 0.1 -s 4 -d 3 -p ack -e 40 -c 0 -i 64 -a 0 -x {167772417.179 167772161.181 1 ------- null}
- -t 0.1 -s 4 -d 3 -p ack -e 40 -c 0 -i 64 -a 0 -x {167772417.179 167772161.181 1 ------- null}
h -t 0.1 -s 4 -d 3 -p ack -e 40 -c 0 -i 64 -a 0 -x {167772417.179 167772161.181 -1 ------- null}
+ -t 0.1 -s 5 -d 3 -p ack -e 40 -c 0 -i 65 -a 0 -x {167772673.179 167772161.182 1 ------- null}
- -t 0.1 -s 5 -d 3 -p ack -e 40 -c 0 -i 65 -a 0 -x {167772673.179 167772161.182 1 ------- null}
h -t 0.1 -s 5 -d 3 -p ack -e 40 -c 0 -i 65 -a 0 -x {167772673.179 167772161.182 -1 ------- null}
+ -t 0.1 -s 1 -d 4 -p ack -e 40 -c 0 -i 66 -a 0 -x {167773185.179 167772417.180 1 ------- null}
- -t 0.1 -s 1 -d 4 -p ack -e 40 -c 0 -i 66 -a 0 -x {167773185.179 167772417.180 1 ------- null}
h -t 0.1 -s 1 -d 4 -p ack -e 40 -c 0 -i 66 -a 0 -x {167773185.179 167772417.180 -1 ------- null}
+ -t 0.1 -s 3 -d 4 -p ack -e 40 -c 0 -i 67 -a 0 -x {167772161.179 167772417.181 1 ------- null}
- -t 0.1 -s 3 -d 4 -p ack -e 40 -c 0 -i 67 -a 0 -x {167772161.179 167772417.181 1 ------- null}
h -t 0.1 -s 3 -d 4 -p ack -e 40 -c 0 -i 67 -a 0 -x {167772161.179 167772417.181 -1 ------- null}
+ -t 0.1 -s 5 -d 4 -p ack -e 40 -c 0 -i 68 -a 0 -x {167772673.179 167772417.182 1 ------- null}
- -t 0.1 -s 5 -d 4 -p ack -e 40 -c 0 -i 68 -a 0 -x {167772673.179 167772417.182 1 ------- null}
h -t 0.1 -s 5 -d 4 -p ack -e 40 -c 0 -i 68 -a 0 -x {167772673.179 167772417.182 -1 ------- null}
+ -t 0.1 -s 2 -d 5 -p ack -e 40 -c 0 -i 69 -a 0 -x {167773441.179 167772673.180 1 ------- null}
- -t 0.1 -s 2 -d 5 -p ack -e 40 -c 0 -i 69 -a 0 -x {167773441.179 167772673.180 1 ------- null}
h -t 0.1 -s 2 -d 5 -p ack -e 40 -c 0 -i 69 -a 0 -x {167773441.179 167772673.180 -1 ------- null}
+ -t 0.1 -s 3 -d 5 -p ack -e 40 -c 0 -i 70 -a 0 -x {167772161.179 167772673.181 1 ------- null}
- -t 0.1 -s 3 -d 5 -p ack -e 40 -c 0 -i 70 -a 0 -x {167772161.179 167772673.181 1 ------- null}
h -t 0.1 -s 3 -d 5 -p ack -e 40 -c 0 -i 70 -a 0 -x {167772161.179 167772673.181 -1 ------- null}
+ -t 0.1 -s 4 -d 5 -p ack -e 40 -c 0 -i 71 -a 0 -x {167772417.179 167772673.182 1 ------- null}
- -t 0.1 -s 4 -d 5 -p ack -e 40 -c 0 -i 71 -a 0 -x {167772417.179 167772673.182 1 ------- null}
h -t 0.1 -s 4 -d 5 -p ack -e 40 -c 0 -i 71 -a 0 -x {167772417.179 167772673.182 -1 ------- null}
r -t 0.110021333333333 -s 3 -d 0 -p ack -e 40 -c 0 -i 60 -a 0 -x {167772161.179 167772929.180 1 ------- null}
+ -t 0.110021333333333 -s 0 -d 3 -p tcp -e 59 -c 0 -i 72 -a 0 -x {167772929.180 167772161.179 30 ------- null}
- -t 0.110021333333333 -s 0 -d 3 -p tcp -e 59 -c 0 -i 72 -a 0 -x {167772929.180 167772161.179 30 ------- null}