V -t * -v 1.0a5 -a 0
A -t * -n 1 -p 0 -o 0xffffffff -c 31 -a 1
A -t * -h 1 -m 2147483647 -s 0
n -t * -a 167772417 -s 4 -S UP -v circle -c purple -i purple
n -t * -a 167772929 -s 0 -S UP -v circle -c red -i red
n -t * -a 167772673 -s 5 -S UP -v circle -c purple -i purple
n -t * -a 167773185 -s 1 -S UP -v circle -c green -i green
n -t * -a 167773441 -s 2 -S UP -v circle -c black -i black
n -t * -a 167772161 -s 3 -S UP -v circle -c purple -i purple
l -t * -s 2 -d 5 -S UP -r 15000000 -D 0.01 -c black
l -t * -s 0 -d 3 -S UP -r 15000000 -D 0.01 -c orange
l -t * -s 4 -d 3 -S UP -r 15000000 -D 0.01 -c orange
l -t * -s 4 -d 5 -S UP -r 15000000 -D 0.01 -c black
l -t * -s 3 -d 5 -S UP -r 15000000 -D 0.01 -c black
l -t * -s 1 -d 4 -S UP -r 15000000 -D 0.01 -c orange
+ -t 0.01 -s 3 -d 0 -p tcp -e 40 -c 0 -i 0 -a 0 -x {167772161.180 167772929.179 0 ------- null}
- -t 0.01 -s 3 -d 0 -p tcp -e 40 -c 0 -i 0 -a 0 -x {167772161.180 167772929.179 0 ------- null}
h -t 0.01 -s 3 -d 0 -p tcp -e 40 -c 0 -i 0 -a 0 -x {167772161.180 167772929.179 -1 ------- null}
+ -t 0.01 -s 3 -d 4 -p tcp -e 40 -c 0 -i 1 -a 0 -x {167772161.181 167772417.179 0 ------- null}
- -t 0.01 -s 3 -d 4 -p tcp -e 40 -c 0 -i 1 -a 0 -x {167772161.181 167772417.179 0 ------- null}
h -t 0.01 -s 3 -d 4 -p tcp -e 40 -c 0 -i 1 -a 0 -x {167772161.181 167772417.179 -1 ------- null}
+ -t 0.01 -s 3 -d 5 -p tcp -e 40 -c 0 -i 2 -a 0 -x {167772161.182 167772673.179 0 ------- null}
- -t 0.01 -s 3 -d 5 -p tcp -e 40 -c 0 -i 2 -a 0 -x {167772161.182 167772673.179 0 ------- null}
h -t 0.01 -s 3 -d 5 -p tcp -e 40 -c 0 -i 2 -a 0 -x {167772161.182 167772673.179 -1 ------- null}
+ -t 0.01 -s 4 -d 1 -p tcp -e 40 -c 0 -i 3 -a 0 -x {167772417.180 167773185.179 0 ------- null}
- -t 0.01 -s 4 -d 1 -p tcp -e 40 -c 0 -i 3 -a 0 -x {167772417.180 167773185.179 0 ------- null}
h -t 0.01 -s 4 -d 1 -p tcp -e 40 -c 0 -i 3 -a 0 -x {167772417.180 167773185.179 -1 ------- null}
+ -t 0.01 -s 4 -d 3 -p tcp -e 40 -c 0 -i 4 -a 0 -x {167772417.181 167772161.179 0 ------- null}
- -t 0.01 -s 4 -d 3 -p tcp -e 40 -c 0 -i 4 -a 0 -x {167772417.181 167772161.179 0 ------- null}
h -t 0.01 -s 4 -d 3 -p tcp -e 40 -c 0 -i 4 -a 0 -x {167772417.181 167772161.179 -1 ------- null}
+ -t 0.01 -s 4 -d 5 -p tcp -e 40 -c 0 -i 5 -a 0 -x {167772417.182 167772673.179 0 ------- null}
- -t 0.01 -s 4 -d 5 -p tcp -e 40 -c 0 -i 5 -a 0 -x {167772417.182 167772673.179 0 ------- null}
h -t 0.01 -s 4 -d 5 -p tcp -e 40 -c 0 -i 5 -a 0 -x {167772417.182 167772673.179 -1 ------- null}
