V -t * -v 1.0a5 -a 0
A -t * -n 1 -p 0 -o 0xffffffff -c 31 -a 1
A -t * -h 1 -m 2147483647 -s 0
n -t * -a 167774209 -s 8 -S UP -v circle -c black -i black
n -t * -a 167773185 -s 4 -S UP -v circle -c black -i black
n -t * -a 167772161 -s 0 -S UP -v circle -c black -i black
n -t * -a 167773441 -s 5 -S UP -v circle -c black -i black
n -t * -a 167772417 -s 1 -S UP -v circle -c black -i black
n -t * -a 167773697 -s 6 -S UP -v circle -c black -i black
n -t * -a 167772673 -s 2 -S UP -v circle -c black -i black
n -t * -a 167773953 -s 7 -S UP -v circle -c black -i black
n -t * -a 167772929 -s 3 -S UP -v circle -c black -i black
l -t * -s 0 -d 1 -S UP -r 1000000 -D 0.001 -c black
l -t * -s 0 -d 2 -S UP -r 1000000 -D 0.001 -c black
l -t * -s 1 -d 2 -S UP -r 1000000 -D 0.001 -c black
l -t * -s 0 -d 3 -S UP -r 1000000 -D 0.001 -c black
l -t * -s 0 -d 4 -S UP -r 1000000 -D 0.001 -c black
l -t * -s 1 -d 5 -S UP -r 1000000 -D 0.001 -c black
l -t * -s 3 -d 6 -S UP -r 1000000 -D 0.001 -c black
l -t * -s 4 -d 7 -S UP -r 1000000 -D 0.001 -c black
l -t * -s 5 -d 8 -S UP -r 1000000 -D 0.001 -c black
+ -t 0.01 -s 0 -d 3 -p tcp -e 40 -c 0 -i 0 -a 0 -x {167772161.180 167772929.179 0 ------- null}
- -t 0.01 -s 0 -d 3 -p tcp -e 40 -c 0 -i 0 -a 0 -x {167772161.180 167772929.179 0 ------- null}
h -t 0.01 -s 0 -d 3 -p tcp -e 40 -c 0 -i 0 -a 0 -x {167772161.180 167772929.179 -1 ------- null}
+ -t 0.01 -s 0 -d 4 -p tcp -e 40 -c 0 -i 1 -a 0 -x {167772161.181 167773185.179 0 ------- null}
- -t 0.01 -s 0 -d 4 -p tcp -e 40 -c 0 -i 1 -a 0 -x {167772161.181 167773185.179 0 ------- null}
h -t 0.01 -s 0 -d 4 -p tcp -e 40 -c 0 -i 1 -a 0 -x {167772161.181 167773185.179 -1 ------- null}
+ -t 0.01 -s 0 -d 1 -p tcp -e 40 -c 0 -i 2 -a 0 -x {167772161.182 167772417.179 0 ------- null}
- -t 0.01 -s 0 -d 1 -p tcp -e 40 -c 0 -i 2 -a 0 -x {167772161.182 167772417.179 0 ------- null}
h -t 0.01 -s 0 -d 1 -p tcp -e 40 -c 0 -i 2 -a 0 -x {167772161.182 167772417.179 -1 ------- null}
+ -t 0.01 -s 0 -d 2 -p tcp -e 40 -c 0 -i 3 -a 0 -x {167772161.183 167772673.179 0 ------- null}
- -t 0.01 -s 0 -d 2 -p tcp -e 40 -c 0 -i 3 -a 0 -x {167772161.183 167772673.179 0 ------- null}
h -t 0.01 -s 0 -d 2 -p tcp -e 40 -c 0 -i 3 -a 0 -x {167772161.183 167772673.179 -1 ------- null}
+ -t 0.01 -s 1 -d 5 -p tcp -e 40 -c 0 -i 4 -a 0 -x {167772417.180 167773441.179 0 ------- null}
- -t 0.01 -s 1 -d 5 -p tcp -e 40 -c 0 -i 4 -a 0 -x {167772417.180 167773441.179 0 ------- null}
h -t 0.01 -s 1 -d 5 -p tcp -e 40 -c 0 -i 4 -a 0 -x {167772417.180 167773441.179 -1 ------- null}
+ -t 0.01 -s 1 -d 0 -p tcp -e 40 -c 0 -i 5 -a 0 -x {167772417.181 167772161.179 0 ------- null}
- -t 0.01 -s 1 -d 0 -p tcp -e 40 -c 0 -i 5 -a 0 -x {167772417.181 167772161.179 0 ------- null}
h -t 0.01 -s 1 -d 0 -p tcp -e 40 -c 0 -i 5 -a 0 -x {167772417.181 167772161.179 -1 ------- null}
+ -t 0.01 -s 1 -d 2 -p tcp -e 40 -c 0 -i 6 -a 0 -x {167772417.182 167772673.179 0 ------- null}
- -t 0.01 -s 1 -d 2 -p tcp -e 40 -c 0 -i 6 -a 0 -x {167772417.182 167772673.179 0 ------- null}
h -t 0.01 -s 1 -d 2 -p tcp -e 40 -c 0 -i 6 -a 0 -x {167772417.182 167772673.179 -1 ------- null}
+ -t 0.01 -s 2 -d 0 -p tcp -e 40 -c 0 -i 7 -a 0 -x {167772673.180 167772161.179 0 ------- null}
- -t 0.01 -s 2 -d 0 -p tcp -e 40 -c 0 -i 7 -a 0 -x {167772673.180 167772161.179 0 ------- null}
h -t 0.01 -s 2 -d 0 -p tcp -e 40 -c 0 -i 7 -a 0 -x {167772673.180 167772161.179 -1 ------- null}
+ -t 0.01 -s 2 -d 1 -p tcp -e 40 -c 0 -i 8 -a 0 -x {167772673.181 167772417.179 0 ------- null}
- -t 0.01 -s 2 -d 1 -p tcp -e 40 -c 0 -i 8 -a 0 -x {167772673.181 167772417.179 0 ------- null}
h -t 0.01 -s 2 -d 1 -p tcp -e 40 -c 0 -i 8 -a 0 -x {167772673.181 167772417.179 -1 ------- null}
+ -t 0.01 -s 3 -d 0 -p tcp -e 40 -c 0 -i 9 -a 0 -x {167772929.180 167772161.179 0 ------- null}
- -t 0.01 -s 3 -d 0 -p tcp -e 40 -c 0 -i 9 -a 0 -x {167772929.180 167772161.179 0 ------- null}
h -t 0.01 -s 3 -d 0 -p tcp -e 40 -c 0 -i 9 -a 0 -x {167772929.180 167772161.179 -1 ------- null}
+ -t 0.01 -s 3 -d 6 -p tcp -e 40 -c 0 -i 10 -a 0 -x {167772929.181 167773697.179 0 ------- null}
- -t 0.01 -s 3 -d 6 -p tcp -e 40 -c 0 -i 10 -a 0 -x {167772929.181 167773697.179 0 ------- null}
h -t 0.01 -s 3 -d 6 -p tcp -e 40 -c 0 -i 10 -a 0 -x {167772929.181 167773697.179 -1 ------- null}
+ -t 0.01 -s 4 -d 0 -p tcp -e 40 -c 0 -i 11 -a 0 -x {167773185.180 167772161.179 0 ------- null}
- -t 0.01 -s 4 -d 0 -p tcp -e 40 -c 0 -i 11 -a 0 -x {167773185.180 167772161.179 0 ------- null}
h -t 0.01 -s 4 -d 0 -p tcp -e 40 -c 0 -i 11 -a 0 -x {167773185.180 167772161.179 -1 ------- null}
+ -t 0.01 -s 4 -d 7 -p tcp -e 40 -c 0 -i 12 -a 0 -x {167773185.181 167773953.179 0 ------- null}
- -t 0.01 -s 4 -d 7 -p tcp -e 40 -c 0 -i 12 -a 0 -x {167773185.181 167773953.179 0 ------- null}
h -t 0.01 -s 4 -d 7 -p tcp -e 40 -c 0 -i 12 -a 0 -x {167773185.181 167773953.179 -1 ------- null}
+ -t 0.01 -s 5 -d 1 -p tcp -e 40 -c 0 -i 13 -a 0 -x {167773441.180 167772417.179 0 ------- null}
- -t 0.01 -s 5 -d 1 -p tcp -e 40 -c 0 -i 13 -a 0 -x {167773441.180 167772417.179 0 ------- null}
h -t 0.01 -s 5 -d 1 -p tcp -e 40 -c 0 -i 13 -a 0 -x {167773441.180 167772417.179 -1 ------- null}
+ -t 0.01 -s 5 -d 8 -p tcp -e 40 -c 0 -i 14 -a 0 -x {167773441.181 167774209.179 0 ------- null}
- -t 0.01 -s 5 -d 8 -p tcp -e 40 -c 0 -i 14 -a 0 -x {167773441.181 167774209.179 0 ------- null}
h -t 0.01 -s 5 -d 8 -p tcp -e 40 -c 0 -i 14 -a 0 -x {167773441.181 167774209.179 -1 ------- null}
+ -t 0.01 -s 6 -d 3 -p tcp -e 40 -c 0 -i 15 -a 0 -x {167773697.180 167772929.179 0 ------- null}
- -t 0.01 -s 6 -d 3 -p tcp -e 40 -c 0 -i 15 -a 0 -x {167773697.180 167772929.179 0 ------- null}
h -t 0.01 -s 6 -d 3 -p tcp -e 40 -c 0 -i 15 -a 0 -x {167773697.180 167772929.179 -1 ------- null}
+ -t 0.01 -s 7 -d 4 -p tcp -e 40 -c 0 -i 16 -a 0 -x {167773953.180 167773185.179 0 ------- null}
- -t 0.01 -s 7 -d 4 -p tcp -e 40 -c 0 -i 16 -a 0 -x {167773953.180 167773185.179 0 ------- null}
h -t 0.01 -s 7 -d 4 -p tcp -e 40 -c 0 -i 16 -a 0 -x {167773953.180 167773185.179 -1 ------- null}
+ -t 0.01 -s 8 -d 5 -p tcp -e 40 -c 0 -i 17 -a 0 -x {167774209.180 167773441.179 0 ------- null}
- -t 0.01 -s 8 -d 5 -p tcp -e 40 -c 0 -i 17 -a 0 -x {167774209.180 167773441.179 0 ------- null}
h -t 0.01 -s 8 -d 5 -p tcp -e 40 -c 0 -i 17 -a 0 -x {167774209.180 167773441.179 -1 ------- null}
r -t 0.01132 -s 0 -d 3 -p tcp -e 40 -c 0 -i 0 -a 0 -x {167772161.180 167772929.179 0 ------- null}
+ -t 0.01132 -s 3 -d 0 -p ack -e 40 -c 0 -i 18 -a 0 -x {167772929.179 167772161.180 0 ------- null}
- -t 0.01132 -s 3 -d 0 -p ack -e 40 -c 0 -i 18 -a 0 -x {167772929.179 167772161.180 0 ------- null}
h -t 0.01132 -s 3 -d 0 -p ack -e 40 -c 0 -i 18 -a 0 -x {167772929.179 167772161.180 -1 ------- null}
r -t 0.01132 -s 0 -d 4 -p tcp -e 40 -c 0 -i 1 -a 0 -x {167772161.181 167773185.179 0 ------- null}
+ -t 0.01132 -s 4 -d 0 -p ack -e 40 -c 0 -i 19 -a 0 -x {167773185.179 167772161.181 0 ------- null}
- -t 0.01132 -s 4 -d 0 -p ack -e 40 -c 0 -i 19 -a 0 -x {167773185.179 167772161.181 0 ------- null}
h -t 0.01132 -s 4 -d 0 -p ack -e 40 -c 0 -i 19 -a 0 -x {167773185.179 167772161.181 -1 ------- null}
r -t 0.01132 -s 0 -d 1 -p tcp -e 40 -c 0 -i 2 -a 0 -x {167772161.182 167772417.179 0 ------- null}
+ -t 0.01132 -s 1 -d 0 -p ack -e 40 -c 0 -i 20 -a 0 -x {167772417.179 167772161.182 0 ------- null}
- -t 0.01132 -s 1 -d 0 -p ack -e 40 -c 0 -i 20 -a 0 -x {167772417.179 167772161.182 0 ------- null}
h -t 0.01132 -s 1 -d 0 -p ack -e 40 -c 0 -i 20 -a 0 -x {167772417.179 167772161.182 -1 ------- null}
r -t 0.01132 -s 0 -d 2 -p tcp -e 40 -c 0 -i 3 -a 0 -x {167772161.183 167772673.179 0 ------- null}
+ -t 0.01132 -s 2 -d 0 -p ack -e 40 -c 0 -i 21 -a 0 -x {167772673.179 167772161.183 0 ------- null}
- -t 0.01132 -s 2 -d 0 -p ack -e 40 -c 0 -i 21 -a 0 -x {167772673.179 167772161.183 0 ------- null}
h -t 0.01132 -s 2 -d 0 -p ack -e 40 -c 0 -i 21 -a 0 -x {167772673.179 167772161.183 -1 ------- null}
r -t 0.01132 -s 1 -d 5 -p tcp -e 40 -c 0 -i 4 -a 0 -x {167772417.180 167773441.179 0 ------- null}
+ -t 0.01132 -s 5 -d 1 -p ack -e 40 -c 0 -i 22 -a 0 -x {167773441.179 167772417.180 0 ------- null}
- -t 0.01132 -s 5 -d 1 -p ack -e 40 -c 0 -i 22 -a 0 -x {167773441.179 167772417.180 0 ------- null}
h -t 0.01132 -s 5 -d 1 -p ack -e 40 -c 0 -i 22 -a 0 -x {167773441.179 167772417.180 -1 ------- null}
r -t 0.01132 -s 1 -d 0 -p tcp -e 40 -c 0 -i 5 -a 0 -x {167772417.181 167772161.179 0 ------- null}
+ -t 0.01132 -s 0 -d 1 -p ack -e 40 -c 0 -i 23 -a 0 -x {167772161.179 167772417.181 0 ------- null}
- -t 0.01132 -s 0 -d 1 -p ack -e 40 -c 0 -i 23 -a 0 -x {167772161.179 167772417.181 0 ------- null}
h -t 0.01132 -s 0 -d 1 -p ack -e 40 -c 0 -i 23 -a 0 -x {167772161.179 167772417.181 -1 ------- null}
r -t 0.01132 -s 1 -d 2 -p tcp -e 40 -c 0 -i 6 -a 0 -x {167772417.182 167772673.179 0 ------- null}
+ -t 0.01132 -s 2 -d 1 -p ack -e 40 -c 0 -i 24 -a 0 -x {167772673.179 167772417.182 0 ------- null}
- -t 0.01132 -s 2 -d 1 -p ack -e 40 -c 0 -i 24 -a 0 -x {167772673.179 167772417.182 0 ------- null}
h -t 0.01132 -s 2 -d 1 -p ack -e 40 -c 0 -i 24 -a 0 -x {167772673.179 167772417.182 -1 ------- null}
r -t 0.01132 -s 2 -d 0 -p tcp -e 40 -c 0 -i 7 -a 0 -x {167772673.180 167772161.179 0 ------- null}
+ -t 0.01132 -s 0 -d 2 -p ack -e 40 -c 0 -i 25 -a 0 -x {167772161.179 167772673.180 0 ------- null}
- -t 0.01132 -s 0 -d 2 -p ack -e 40 -c 0 -i 25 -a 0 -x {167772161.179 167772673.180 0 ------- null}
h -t 0.01132 -s 0 -d 2 -p ack -e 40 -c 0 -i 25 -a 0 -x {167772161.179 167772673.180 -1 ------- null}
r -t 0.01132 -s 2 -d 1 -p tcp -e 40 -c 0 -i 8 -a 0 -x {167772673.181 167772417.179 0 ------- null}
+ -t 0.01132 -s 1 -d 2 -p ack -e 40 -c 0 -i 26 -a 0 -x {167772417.179 167772673.181 0 ------- null}
- -t 0.01132 -s 1 -d 2 -p ack -e 40 -c 0 -i 26 -a 0 -x {167772417.179 167772673.181 0 ------- null}
h -t 0.01132 -s 1 -d 2 -p ack -e 40 -c 0 -i 26 -a 0 -x {167772417.179 167772673.181 -1 ------- null}
r -t 0.01132 -s 3 -d 0 -p tcp -e 40 -c 0 -i 9 -a 0 -x {167772929.180 167772161.179 0 ------- null}
+ -t 0.01132 -s 0 -d 3 -p ack -e 40 -c 0 -i 27 -a 0 -x {167772161.179 167772929.180 0 ------- null}
- -t 0.01132 -s 0 -d 3 -p ack -e 40 -c 0 -i 27 -a 0 -x {167772161.179 167772929.180 0 ------- null}
h -t 0.01132 -s 0 -d 3 -p ack -e 40 -c 0 -i 27 -a 0 -x {167772161.179 167772929.180 -1 ------- null}
r -t 0.01132 -s 3 -d 6 -p tcp -e 40 -c 0 -i 10 -a 0 -x {167772929.181 167773697.179 0 ------- null}
+ -t 0.01132 -s 6 -d 3 -p ack -e 40 -c 0 -i 28 -a 0 -x {167773697.179 167772929.181 0 ------- null}
- -t 0.01132 -s 6 -d 3 -p ack -e 40 -c 0 -i 28 -a 0 -x {167773697.179 167772929.181 0 ------- null}
h -t 0.01132 -s 6 -d 3 -p ack -e 40 -c 0 -i 28 -a 0 -x {167773697.179 167772929.181 -1 ------- null}
r -t 0.01132 -s 4 -d 0 -p tcp -e 40 -c 0 -i 11 -a 0 -x {167773185.180 167772161.179 0 ------- null}
+ -t 0.01132 -s 0 -d 4 -p ack -e 40 -c 0 -i 29 -a 0 -x {167772161.179 167773185.180 0 ------- null}
- -t 0.01132 -s 0 -d 4 -p ack -e 40 -c 0 -i 29 -a 0 -x {167772161.179 167773185.180 0 ------- null}
h -t 0.01132 -s 0 -d 4 -p ack -e 40 -c 0 -i 29 -a 0 -x {167772161.179 167773185.180 -1 ------- null}
r -t 0.01132 -s 4 -d 7 -p tcp -e 40 -c 0 -i 12 -a 0 -x {167773185.181 167773953.179 0 ------- null}
+ -t 0.01132 -s 7 -d 4 -p ack -e 40 -c 0 -i 30 -a 0 -x {167773953.179 167773185.181 0 ------- null}
- -t 0.01132 -s 7 -d 4 -p ack -e 40 -c 0 -i 30 -a 0 -x {167773953.179 167773185.181 0 ------- null}
h -t 0.01132 -s 7 -d 4 -p ack -e 40 -c 0 -i 30 -a 0 -x {167773953.179 167773185.181 -1 ------- null}
r -t 0.01132 -s 5 -d 1 -p tcp -e 40 -c 0 -i 13 -a 0 -x {167773441.180 167772417.179 0 ------- null}
+ -t 0.01132 -s 1 -d 5 -p ack -e 40 -c 0 -i 31 -a 0 -x {167772417.179 167773441.180 0 ------- null}
- -t 0.01132 -s 1 -d 5 -p ack -e 40 -c 0 -i 31 -a 0 -x {167772417.179 167773441.180 0 ------- null}
h -t 0.01132 -s 1 -d 5 -p ack -e 40 -c 0 -i 31 -a 0 -x {167772417.179 167773441.180 -1 ------- null}
r -t 0.01132 -s 5 -d 8 -p tcp -e 40 -c 0 -i 14 -a 0 -x {167773441.181 167774209.179 0 ------- null}
+ -t 0.01132 -s 8 -d 5 -p ack -e 40 -c 0 -i 32 -a 0 -x {167774209.179 167773441.181 0 ------- null}
- -t 0.01132 -s 8 -d 5 -p ack -e 40 -c 0 -i 32 -a 0 -x {167774209.179 167773441.181 0 ------- null}
h -t 0.01132 -s 8 -d 5 -p ack -e 40 -c 0 -i 32 -a 0 -x {167774209.179 167773441.181 -1 ------- null}
r -t 0.01132 -s 6 -d 3 -p tcp -e 40 -c 0 -i 15 -a 0 -x {167773697.180 167772929.179 0 ------- null}
+ -t 0.01132 -s 3 -d 6 -p ack -e 40 -c 0 -i 33 -a 0 -x {167772929.179 167773697.180 0 ------- null}
- -t 0.01132 -s 3 -d 6 -p ack -e 40 -c 0 -i 33 -a 0 -x {167772929.179 167773697.180 0 ------- null}
h -t 0.01132 -s 3 -d 6 -p ack -e 40 -c 0 -i 33 -a 0 -x {167772929.179 167773697.180 -1 ------- null}
r -t 0.01132 -s 7 -d 4 -p tcp -e 40 -c 0 -i 16 -a 0 -x {167773953.180 167773185.179 0 ------- null}
+ -t 0.01132 -s 4 -d 7 -p ack -e 40 -c 0 -i 34 -a 0 -x {167773185.179 167773953.180 0 ------- null}
- -t 0.01132 -s 4 -d 7 -p ack -e 40 -c 0 -i 34 -a 0 -x {167773185.179 167773953.180 0 ------- null}
h -t 0.01132 -s 4 -d 7 -p ack -e 40 -c 0 -i 34 -a 0 -x {167773185.179 167773953.180 -1 ------- null}
r -t 0.01132 -s 8 -d 5 -p tcp -e 40 -c 0 -i 17 -a 0 -x {167774209.180 167773441.179 0 ------- null}
+ -t 0.01132 -s 5 -d 8 -p ack -e 40 -c 0 -i 35 -a 0 -x {167773441.179 167774209.180 0 ------- null}
- -t 0.01132 -s 5 -d 8 -p ack -e 40 -c 0 -i 35 -a 0 -x {167773441.179 167774209.180 0 ------- null}
h -t 0.01132 -s 5 -d 8 -p ack -e 40 -c 0 -i 35 -a 0 -x {167773441.179 167774209.180 -1 ------- null}
r -t 0.01264 -s 3 -d 0 -p ack -e 40 -c 0 -i 18 -a 0 -x {167772929.179 167772161.180 0 ------- null}
+ -t 0.01264 -s 0 -d 3 -p tcp -e 40 -c 0 -i 36 -a 0 -x {167772161.180 167772929.179 1 ------- null}
- -t 0.01264 -s 0 -d 3 -p tcp -e 40 -c 0 -i 36 -a 0 -x {167772161.180 167772929.179 1 ------- null}
h -t 0.01264 -s 0 -d 3 -p tcp -e 40 -c 0 -i 36 -a 0 -x {167772161.180 167772929.179 -1 ------- null}
+ -t 0.01264 -s 0 -d 3 -p tcp -e 40 -c 0 -i 37 -a 0 -x {167772161.180 167772929.179 1 ------- null}
r -t 0.01264 -s 4 -d 0 -p ack -e 40 -c 0 -i 19 -a 0 -x {167773185.179 167772161.181 0 ------- null}
+ -t 0.01264 -s 0 -d 4 -p tcp -e 40 -c 0 -i 38 -a 0 -x {167772161.181 167773185.179 1 ------- null}
- -t 0.01264 -s 0 -d 4 -p tcp -e 40 -c 0 -i 38 -a 0 -x {167772161.181 167773185.179 1 ------- null}
h -t 0.01264 -s 0 -d 4 -p tcp -e 40 -c 0 -i 38 -a 0 -x {167772161.181 167773185.179 -1 ------- null}
+ -t 0.01264 -s 0 -d 4 -p tcp -e 40 -c 0 -i 39 -a 0 -x {167772161.181 167773185.179 1 ------- null}
r -t 0.01264 -s 1 -d 0 -p ack -e 40 -c 0 -i 20 -a 0 -x {167772417.179 167772161.182 0 ------- null}
+ -t 0.01264 -s 0 -d 1 -p tcp -e 40 -c 0 -i 40 -a 0 -x {167772161.182 167772417.179 1 ------- null}
- -t 0.01264 -s 0 -d 1 -p tcp -e 40 -c 0 -i 40 -a 0 -x {167772161.182 167772417.179 1 ------- null}
h -t 0.01264 -s 0 -d 1 -p tcp -e 40 -c 0 -i 40 -a 0 -x {167772161.182 167772417.179 -1 ------- null}
+ -t 0.01264 -s 0 -d 1 -p tcp -e 40 -c 0 -i 41 -a 0 -x {167772161.182 167772417.179 1 ------- null}
r -t 0.01264 -s 2 -d 0 -p ack -e 40 -c 0 -i 21 -a 0 -x {167772673.179 167772161.183 0 ------- null}
+ -t 0.01264 -s 0 -d 2 -p tcp -e 40 -c 0 -i 42 -a 0 -x {167772161.183 167772673.179 1 ------- null}
- -t 0.01264 -s 0 -d 2 -p tcp -e 40 -c 0 -i 42 -a 0 -x {167772161.183 167772673.179 1 ------- null}
h -t 0.01264 -s 0 -d 2 -p tcp -e 40 -c 0 -i 42 -a 0 -x {167772161.183 167772673.179 -1 ------- null}
+ -t 0.01264 -s 0 -d 2 -p tcp -e 40 -c 0 -i 43 -a 0 -x {167772161.183 167772673.179 1 ------- null}
r -t 0.01264 -s 5 -d 1 -p ack -e 40 -c 0 -i 22 -a 0 -x {167773441.179 167772417.180 0 ------- null}
+ -t 0.01264 -s 1 -d 5 -p tcp -e 40 -c 0 -i 44 -a 0 -x {167772417.180 167773441.179 1 ------- null}
- -t 0.01264 -s 1 -d 5 -p tcp -e 40 -c 0 -i 44 -a 0 -x {167772417.180 167773441.179 1 ------- null}
h -t 0.01264 -s 1 -d 5 -p tcp -e 40 -c 0 -i 44 -a 0 -x {167772417.180 167773441.179 -1 ------- null}
+ -t 0.01264 -s 1 -d 5 -p tcp -e 40 -c 0 -i 45 -a 0 -x {167772417.180 167773441.179 1 ------- null}
r -t 0.01264 -s 0 -d 1 -p ack -e 40 -c 0 -i 23 -a 0 -x {167772161.179 167772417.181 0 ------- null}
+ -t 0.01264 -s 1 -d 0 -p tcp -e 40 -c 0 -i 46 -a 0 -x {167772417.181 167772161.179 1 ------- null}
- -t 0.01264 -s 1 -d 0 -p tcp -e 40 -c 0 -i 46 -a 0 -x {167772417.181 167772161.179 1 ------- null}
h -t 0.01264 -s 1 -d 0 -p tcp -e 40 -c 0 -i 46 -a 0 -x {167772417.181 167772161.179 -1 ------- null}
+ -t 0.01264 -s 1 -d 0 -p tcp -e 40 -c 0 -i 47 -a 0 -x {167772417.181 167772161.179 1 ------- null}
r -t 0.01264 -s 2 -d 1 -p ack -e 40 -c 0 -i 24 -a 0 -x {167772673.179 167772417.182 0 ------- null}
+ -t 0.01264 -s 1 -d 2 -p tcp -e 40 -c 0 -i 48 -a 0 -x {167772417.182 167772673.179 1 ------- null}
- -t 0.01264 -s 1 -d 2 -p tcp -e 40 -c 0 -i 48 -a 0 -x {167772417.182 167772673.179 1 ------- null}
h -t 0.01264 -s 1 -d 2 -p tcp -e 40 -c 0 -i 48 -a 0 -x {167772417.182 167772673.179 -1 ------- null}
+ -t 0.01264 -s 1 -d 2 -p tcp -e 40 -c 0 -i 49 -a 0 -x {167772417.182 167772673.179 1 ------- null}
r -t 0.01264 -s 0 -d 2 -p ack -e 40 -c 0 -i 25 -a 0 -x {167772161.179 167772673.180 0 ------- null}
+ -t 0.01264 -s 2 -d 0 -p tcp -e 40 -c 0 -i 50 -a 0 -x {167772673.180 167772161.179 1 ------- null}
- -t 0.01264 -s 2 -d 0 -p tcp -e 40 -c 0 -i 50 -a 0 -x {167772673.180 167772161.179 1 ------- null}
h -t 0.01264 -s 2 -d 0 -p tcp -e 40 -c 0 -i 50 -a 0 -x {167772673.180 167772161.179 -1 ------- null}
+ -t 0.01264 -s 2 -d 0 -p tcp -e 40 -c 0 -i 51 -a 0 -x {167772673.180 167772161.179 1 ------- null}
r -t 0.01264 -s 1 -d 2 -p ack -e 40 -c 0 -i 26 -a 0 -x {167772417.179 167772673.181 0 ------- null}
+ -t 0.01264 -s 2 -d 1 -p tcp -e 40 -c 0 -i 52 -a 0 -x {167772673.181 167772417.179 1 ------- null}
- -t 0.01264 -s 2 -d 1 -p tcp -e 40 -c 0 -i 52 -a 0 -x {167772673.181 167772417.179 1 ------- null}
h -t 0.01264 -s 2 -d 1 -p tcp -e 40 -c 0 -i 52 -a 0 -x {167772673.181 167772417.179 -1 ------- null}
+ -t 0.01264 -s 2 -d 1 -p tcp -e 40 -c 0 -i 53 -a 0 -x {167772673.181 167772417.179 1 ------- null}
r -t 0.01264 -s 0 -d 3 -p ack -e 40 -c 0 -i 27 -a 0 -x {167772161.179 167772929.180 0 ------- null}
+ -t 0.01264 -s 3 -d 0 -p tcp -e 40 -c 0 -i 54 -a 0 -x {167772929.180 167772161.179 1 ------- null}
- -t 0.01264 -s 3 -d 0 -p tcp -e 40 -c 0 -i 54 -a 0 -x {167772929.180 167772161.179 1 ------- null}
h -t 0.01264 -s 3 -d 0 -p tcp -e 40 -c 0 -i 54 -a 0 -x {167772929.180 167772161.179 -1 ------- null}
+ -t 0.01264 -s 3 -d 0 -p tcp -e 40 -c 0 -i 55 -a 0 -x {167772929.180 167772161.179 1 ------- null}
r -t 0.01264 -s 6 -d 3 -p ack -e 40 -c 0 -i 28 -a 0 -x {167773697.179 167772929.181 0 ------- null}
+ -t 0.01264 -s 3 -d 6 -p tcp -e 40 -c 0 -i 56 -a 0 -x {167772929.181 167773697.179 1 ------- null}
- -t 0.01264 -s 3 -d 6 -p tcp -e 40 -c 0 -i 56 -a 0 -x {167772929.181 167773697.179 1 ------- null}
h -t 0.01264 -s 3 -d 6 -p tcp -e 40 -c 0 -i 56 -a 0 -x {167772929.181 167773697.179 -1 ------- null}
+ -t 0.01264 -s 3 -d 6 -p tcp -e 40 -c 0 -i 57 -a 0 -x {167772929.181 167773697.179 1 ------- null}
r -t 0.01264 -s 0 -d 4 -p ack -e 40 -c 0 -i 29 -a 0 -x {167772161.179 167773185.180 0 ------- null}
+ -t 0.01264 -s 4 -d 0 -p tcp -e 40 -c 0 -i 58 -a 0 -x {167773185.180 167772161.179 1 ------- null}
- -t 0.01264 -s 4 -d 0 -p tcp -e 40 -c 0 -i 58 -a 0 -x {167773185.180 167772161.179 1 ------- null}
h -t 0.01264 -s 4 -d 0 -p tcp -e 40 -c 0 -i 58 -a 0 -x {167773185.180 167772161.179 -1 ------- null}
+ -t 0.01264 -s 4 -d 0 -p tcp -e 40 -c 0 -i 59 -a 0 -x {167773185.180 167772161.179 1 ------- null}
r -t 0.01264 -s 7 -d 4 -p ack -e 40 -c 0 -i 30 -a 0 -x {167773953.179 167773185.181 0 ------- null}
+ -t 0.01264 -s 4 -d 7 -p tcp -e 40 -c 0 -i 60 -a 0 -x {167773185.181 167773953.179 1 ------- null}
- -t 0.01264 -s 4 -d 7 -p tcp -e 40 -c 0 -i 60 -a 0 -x {167773185.181 167773953.179 1 ------- null}
h -t 0.01264 -s 4 -d 7 -p tcp -e 40 -c 0 -i 60 -a 0 -x {167773185.181 167773953.179 -1 ------- null}
+ -t 0.01264 -s 4 -d 7 -p tcp -e 40 -c 0 -i 61 -a 0 -x {167773185.181 167773953.179 1 ------- null}
r -t 0.01264 -s 1 -d 5 -p ack -e 40 -c 0 -i 31 -a 0 -x {167772417.179 167773441.180 0 ------- null}
+ -t 0.01264 -s 5 -d 1 -p tcp -e 40 -c 0 -i 62 -a 0 -x {167773441.180 167772417.179 1 ------- null}
- -t 0.01264 -s 5 -d 1 -p tcp -e 40 -c 0 -i 62 -a 0 -x {167773441.180 167772417.179 1 ------- null}
h -t 0.01264 -s 5 -d 1 -p tcp -e 40 -c 0 -i 62 -a 0 -x {167773441.180 167772417.179 -1 ------- null}
+ -t 0.01264 -s 5 -d 1 -p tcp -e 40 -c 0 -i 63 -a 0 -x {167773441.180 167772417.179 1 ------- null}
r -t 0.01264 -s 8 -d 5 -p ack -e 40 -c 0 -i 32 -a 0 -x {167774209.179 167773441.181 0 ------- null}
+ -t 0.01264 -s 5 -d 8 -p tcp -e 40 -c 0 -i 64 -a 0 -x {167773441.181 167774209.179 1 ------- null}
- -t 0.01264 -s 5 -d 8 -p tcp -e 40 -c 0 -i 64 -a 0 -x {167773441.181 167774209.179 1 ------- null}
h -t 0.01264 -s 5 -d 8 -p tcp -e 40 -c 0 -i 64 -a 0 -x {167773441.181 167774209.179 -1 ------- null}
+ -t 0.01264 -s 5 -d 8 -p tcp -e 40 -c 0 -i 65 -a 0 -x {167773441.181 167774209.179 1 ------- null}
r -t 0.01264 -s 3 -d 6 -p ack -e 40 -c 0 -i 33 -a 0 -x {167772929.179 167773697.180 0 ------- null}
+ -t 0.01264 -s 6 -d 3 -p tcp -e 40 -c 0 -i 66 -a 0 -x {167773697.180 167772929.179 1 ------- null}
- -t 0.01264 -s 6 -d 3 -p tcp -e 40 -c 0 -i 66 -a 0 -x {167773697.180 167772929.179 1 ------- null}
h -t 0.01264 -s 6 -d 3 -p tcp -e 40 -c 0 -i 66 -a 0 -x {167773697.180 167772929.179 -1 ------- null}
+ -t 0.01264 -s 6 -d 3 -p tcp -e 40 -c 0 -i 67 -a 0 -x {167773697.180 167772929.179 1 ------- null}
r -t 0.01264 -s 4 -d 7 -p ack -e 40 -c 0 -i 34 -a 0 -x {167773185.179 167773953.180 0 ------- null}
+ -t 0.01264 -s 7 -d 4 -p tcp -e 40 -c 0 -i 68 -a 0 -x {167773953.180 167773185.179 1 ------- null}
- -t 0.01264 -s 7 -d 4 -p tcp -e 40 -c 0 -i 68 -a 0 -x {167773953.180 167773185.179 1 ------- null}
h -t 0.01264 -s 7 -d 4 -p tcp -e 40 -c 0 -i 68 -a 0 -x {167773953.180 167773185.179 -1 ------- null}
+ -t 0.01264 -s 7 -d 4 -p tcp -e 40 -c 0 -i 69 -a 0 -x {167773953.180 167773185.179 1 ------- null}
r -t 0.01264 -s 5 -d 8 -p ack -e 40 -c 0 -i 35 -a 0 -x {167773441.179 167774209.180 0 ------- null}
+ -t 0.01264 -s 8 -d 5 -p tcp -e 40 -c 0 -i 70 -a 0 -x {167774209.180 167773441.179 1 ------- null}
- -t 0.01264 -s 8 -d 5 -p tcp -e 40 -c 0 -i 70 -a 0 -x {167774209.180 167773441.179 1 ------- null}
h -t 0.01264 -s 8 -d 5 -p tcp -e 40 -c 0 -i 70 -a 0 -x {167774209.180 167773441.179 -1 ------- null}
+ -t 0.01264 -s 8 -d 5 -p tcp -e 40 -c 0 -i 71 -a 0 -x {167774209.180 167773441.179 1 ------- null}
- -t 0.01296 -s 0 -d 3 -p tcp -e 40 -c 0 -i 37 -a 0 -x {167772161.180 167772929.179 1 ------- null}
h -t 0.01296 -s 0 -d 3 -p tcp -e 40 -c 0 -i 37 -a 0 -x {167772161.180 167772929.179 -1 ------- null}
- -t 0.01296 -s 0 -d 4 -p tcp -e 40 -c 0 -i 39 -a 0 -x {167772161.181 167773185.179 1 ------- null}
h -t 0.01296 -s 0 -d 4 -p tcp -e 40 -c 0 -i 39 -a 0 -x {167772161.181 167773185.179 -1 ------- null}
- -t 0.01296 -s 0 -d 1 -p tcp -e 40 -c 0 -i 41 -a 0 -x {167772161.182 167772417.179 1 ------- null}
h -t 0.01296 -s 0 -d 1 -p tcp -e 40 -c 0 -i 41 -a 0 -x {167772161.182 167772417.179 -1 ------- null}
- -t 0.01296 -s 0 -d 2 -p tcp -e 40 -c 0 -i 43 -a 0 -x {167772161.183 167772673.179 1 ------- null}
h -t 0.01296 -s 0 -d 2 -p tcp -e 40 -c 0 -i 43 -a 0 -x {167772161.183 167772673.179 -1 ------- null}
- -t 0.01296 -s 1 -d 5 -p tcp -e 40 -c 0 -i 45 -a 0 -x {167772417.180 167773441.179 1 ------- null}
h -t 0.01296 -s 1 -d 5 -p tcp -e 40 -c 0 -i 45 -a 0 -x {167772417.180 167773441.179 -1 ------- null}
- -t 0.01296 -s 1 -d 0 -p tcp -e 40 -c 0 -i 47 -a 0 -x {167772417.181 167772161.179 1 ------- null}
h -t 0.01296 -s 1 -d 0 -p tcp -e 40 -c 0 -i 47 -a 0 -x {167772417.181 167772161.179 -1 ------- null}
- -t 0.01296 -s 1 -d 2 -p tcp -e 40 -c 0 -i 49 -a 0 -x {167772417.182 167772673.179 1 ------- null}
h -t 0.01296 -s 1 -d 2 -p tcp -e 40 -c 0 -i 49 -a 0 -x {167772417.182 167772673.179 -1 ------- null}
- -t 0.01296 -s 2 -d 0 -p tcp -e 40 -c 0 -i 51 -a 0 -x {167772673.180 167772161.179 1 ------- null}
h -t 0.01296 -s 2 -d 0 -p tcp -e 40 -c 0 -i 51 -a 0 -x {167772673.180 167772161.179 -1 ------- null}
- -t 0.01296 -s 2 -d 1 -p tcp -e 40 -c 0 -i 53 -a 0 -x {167772673.181 167772417.179 1 ------- null}
h -t 0.01296 -s 2 -d 1 -p tcp -e 40 -c 0 -i 53 -a 0 -x {167772673.181 167772417.179 -1 ------- null}
- -t 0.01296 -s 3 -d 0 -p tcp -e 40 -c 0 -i 55 -a 0 -x {167772929.180 167772161.179 1 ------- null}
h -t 0.01296 -s 3 -d 0 -p tcp -e 40 -c 0 -i 55 -a 0 -x {167772929.180 167772161.179 -1 ------- null}
- -t 0.01296 -s 3 -d 6 -p tcp -e 40 -c 0 -i 57 -a 0 -x {167772929.181 167773697.179 1 ------- null}
h -t 0.01296 -s 3 -d 6 -p tcp -e 40 -c 0 -i 57 -a 0 -x {167772929.181 167773697.179 -1 ------- null}
- -t 0.01296 -s 4 -d 0 -p tcp -e 40 -c 0 -i 59 -a 0 -x {167773185.180 167772161.179 1 ------- null}
h -t 0.01296 -s 4 -d 0 -p tcp -e 40 -c 0 -i 59 -a 0 -x {167773185.180 167772161.179 -1 ------- null}
- -t 0.01296 -s 4 -d 7 -p tcp -e 40 -c 0 -i 61 -a 0 -x {167773185.181 167773953.179 1 ------- null}
h -t 0.01296 -s 4 -d 7 -p tcp -e 40 -c 0 -i 61 -a 0 -x {167773185.181 167773953.179 -1 ------- null}
- -t 0.01296 -s 5 -d 1 -p tcp -e 40 -c 0 -i 63 -a 0 -x {167773441.180 167772417.179 1 ------- null}
h -t 0.01296 -s 5 -d 1 -p tcp -e 40 -c 0 -i 63 -a 0 -x {167773441.180 167772417.179 -1 ------- null}
- -t 0.01296 -s 5 -d 8 -p tcp -e 40 -c 0 -i 65 -a 0 -x {167773441.181 167774209.179 1 ------- null}
h -t 0.01296 -s 5 -d 8 -p tcp -e 40 -c 0 -i 65 -a 0 -x {167773441.181 167774209.179 -1 ------- null}
- -t 0.01296 -s 6 -d 3 -p tcp -e 40 -c 0 -i 67 -a 0 -x {167773697.180 167772929.179 1 ------- null}
h -t 0.01296 -s 6 -d 3 -p tcp -e 40 -c 0 -i 67 -a 0 -x {167773697.180 167772929.179 -1 ------- null}
- -t 0.01296 -s 7 -d 4 -p tcp -e 40 -c 0 -i 69 -a 0 -x {167773953.180 167773185.179 1 ------- null}
h -t 0.01296 -s 7 -d 4 -p tcp -e 40 -c 0 -i 69 -a 0 -x {167773953.180 167773185.179 -1 ------- null}
- -t 0.01296 -s 8 -d 5 -p tcp -e 40 -c 0 -i 71 -a 0 -x {167774209.180 167773441.179 1 ------- null}
h -t 0.01296 -s 8 -d 5 -p tcp -e 40 -c 0 -i 71 -a 0 -x {167774209.180 167773441.179 -1 ------- null}
r -t 0.01396 -s 0 -d 3 -p tcp -e 40 -c 0 -i 36 -a 0 -x {167772161.180 167772929.179 1 ------- null}
+ -t 0.01396 -s 3 -d 0 -p tcp -e 69 -c 0 -i 72 -a 0 -x {167772929.180 167772161.179 1 ------- null}
- -t 0.01396 -s 3 -d 0 -p tcp -e 69 -c 0 -i 72 -a 0 -x {167772929.180 167772161.179 1 ------- null}
h -t 0.01396 -s 3 -d 0 -p tcp -e 69 -c 0 -i 72 -a 0 -x {167772929.180 167772161.179 -1 ------- null}
r -t 0.01396 -s 0 -d 4 -p tcp -e 40 -c 0 -i 38 -a 0 -x {167772161.181 167773185.179 1 ------- null}
+ -t 0.01396 -s 4 -d 0 -p tcp -e 69 -c 0 -i 73 -a 0 -x {167773185.180 167772161.179 1 ------- null}
- -t 0.01396 -s 4 -d 0 -p tcp -e 69 -c 0 -i 73 -a 0 -x {167773185.180 167772161.179 1 ------- null}
h -t 0.01396 -s 4 -d 0 -p tcp -e 69 -c 0 -i 73 -a 0 -x {167773185.180 167772161.179 -1 ------- null}
r -t 0.01396 -s 0 -d 1 -p tcp -e 40 -c 0 -i 40 -a 0 -x {167772161.182 167772417.179 1 ------- null}
+ -t 0.01396 -s 1 -d 0 -p tcp -e 69 -c 0 -i 74 -a 0 -x {167772417.181 167772161.179 1 ------- null}
- -t 0.01396 -s 1 -d 0 -p tcp -e 69 -c 0 -i 74 -a 0 -x {167772417.181 167772161.179 1 ------- null}
h -t 0.01396 -s 1 -d 0 -p tcp -e 69 -c 0 -i 74 -a 0 -x {167772417.181 167772161.179 -1 ------- null}
r -t 0.01396 -s 0 -d 2 -p tcp -e 40 -c 0 -i 42 -a 0 -x {167772161.183 167772673.179 1 ------- null}
+ -t 0.01396 -s 2 -d 0 -p tcp -e 69 -c 0 -i 75 -a 0 -x {167772673.180 167772161.179 1 ------- null}
- -t 0.01396 -s 2 -d 0 -p tcp -e 69 -c 0 -i 75 -a 0 -x {167772673.180 167772161.179 1 ------- null}
h -t 0.01396 -s 2 -d 0 -p tcp -e 69 -c 0 -i 75 -a 0 -x {167772673.180 167772161.179 -1 ------- null}
r -t 0.01396 -s 1 -d 5 -p tcp -e 40 -c 0 -i 44 -a 0 -x {167772417.180 167773441.179 1 ------- null}
+ -t 0.01396 -s 5 -d 1 -p tcp -e 69 -c 0 -i 76 -a 0 -x {167773441.180 167772417.179 1 ------- null}
- -t 0.01396 -s 5 -d 1 -p tcp -e 69 -c 0 -i 76 -a 0 -x {167773441.180 167772417.179 1 ------- null}
h -t 0.01396 -s 5 -d 1 -p tcp -e 69 -c 0 -i 76 -a 0 -x {167773441.180 167772417.179 -1 ------- null}
r -t 0.01396 -s 1 -d 0 -p tcp -e 40 -c 0 -i 46 -a 0 -x {167772417.181 167772161.179 1 ------- null}
+ -t 0.01396 -s 0 -d 1 -p tcp -e 69 -c 0 -i 77 -a 0 -x {167772161.182 167772417.179 1 ------- null}
- -t 0.01396 -s 0 -d 1 -p tcp -e 69 -c 0 -i 77 -a 0 -x {167772161.182 167772417.179 1 ------- null}
h -t 0.01396 -s 0 -d 1 -p tcp -e 69 -c 0 -i 77 -a 0 -x {167772161.182 167772417.179 -1 ------- null}
r -t 0.01396 -s 1 -d 2 -p tcp -e 40 -c 0 -i 48 -a 0 -x {167772417.182 167772673.179 1 ------- null}
+ -t 0.01396 -s 2 -d 1 -p tcp -e 69 -c 0 -i 78 -a 0 -x {167772673.181 167772417.179 1 ------- null}
- -t 0.01396 -s 2 -d 1 -p tcp -e 69 -c 0 -i 78 -a 0 -x {167772673.181 167772417.179 1 ------- null}
h -t 0.01396 -s 2 -d 1 -p tcp -e 69 -c 0 -i 78 -a 0 -x {167772673.181 167772417.179 -1 ------- null}
r -t 0.01396 -s 2 -d 0 -p tcp -e 40 -c 0 -i 50 -a 0 -x {167772673.180 167772161.179 1 ------- null}
+ -t 0.01396 -s 0 -d 2 -p tcp -e 69 -c 0 -i 79 -a 0 -x {167772161.183 167772673.179 1 ------- null}
- -t 0.01396 -s 0 -d 2 -p tcp -e 69 -c 0 -i 79 -a 0 -x {167772161.183 167772673.179 1 ------- null}
h -t 0.01396 -s 0 -d 2 -p tcp -e 69 -c 0 -i 79 -a 0 -x {167772161.183 167772673.179 -1 ------- null}
r -t 0.01396 -s 2 -d 1 -p tcp -e 40 -c 0 -i 52 -a 0 -x {167772673.181 167772417.179 1 ------- null}
+ -t 0.01396 -s 1 -d 2 -p tcp -e 69 -c 0 -i 80 -a 0 -x {167772417.182 167772673.179 1 ------- null}
- -t 0.01396 -s 1 -d 2 -p tcp -e 69 -c 0 -i 80 -a 0 -x {167772417.182 167772673.179 1 ------- null}
h -t 0.01396 -s 1 -d 2 -p tcp -e 69 -c 0 -i 80 -a 0 -x {167772417.182 167772673.179 -1 ------- null}
r -t 0.01396 -s 3 -d 0 -p tcp -e 40 -c 0 -i 54 -a 0 -x {167772929.180 167772161.179 1 ------- null}
+ -t 0.01396 -s 0 -d 3 -p tcp -e 69 -c 0 -i 81 -a 0 -x {167772161.180 167772929.179 1 ------- null}