V -t * -v 1.0a5 -a 0
A -t * -n 1 -p 0 -o 0xffffffff -c 31 -a 1
A -t * -h 1 -m 2147483647 -s 0
c -t * -i 1 -n Blue
c -t * -i 2 -n Red
n -t * -a 4 -s 4 -S UP -v circle -c black -i black
n -t * -a 0 -s 0 -S UP -v circle -c black -i black
n -t * -a 5 -s 5 -S UP -v circle -c black -i black
n -t * -a 1 -s 1 -S UP -v circle -c black -i black
n -t * -a 2 -s 2 -S UP -v circle -c black -i black
n -t * -a 3 -s 3 -S UP -v circle -c black -i black
l -t * -s 0 -d 2 -S UP -r 500000 -D 0.10000000000000001 -c black -o right-down
l -t * -s 1 -d 2 -S UP -r 500000 -D 0.10000000000000001 -c black -o right-up
l -t * -s 2 -d 3 -S UP -r 500000 -D 0.10000000000000001 -c black -o right
l -t * -s 3 -d 4 -S UP -r 500000 -D 0.10000000000000001 -c black -o right-up
l -t * -s 3 -d 5 -S UP -r 500000 -D 0.10000000000000001 -c black -o right-down
+ -t 0.1 -s 1 -d 2 -p cbr -e 1000 -c 2 -i 0 -a 2 -x {1.0 5.1 0 ------- null}
- -t 0.1 -s 1 -d 2 -p cbr -e 1000 -c 2 -i 0 -a 2 -x {1.0 5.1 0 ------- null}
h -t 0.1 -s 1 -d 2 -p cbr -e 1000 -c 2 -i 0 -a 2 -x {1.0 5.1 -1 ------- null}
+ -t 0.117857142857143 -s 1 -d 2 -p cbr -e 1000 -c 2 -i 1 -a 2 -x {1.0 5.1 1 ------- null}
- -t 0.117857142857143 -s 1 -d 2 -p cbr -e 1000 -c 2 -i 1 -a 2 -x {1.0 5.1 1 ------- null}
h -t 0.117857142857143 -s 1 -d 2 -p cbr -e 1000 -c 2 -i 1 -a 2 -x {1.0 5.1 -1 ------- null}
+ -t 0.135714285714286 -s 1 -d 2 -p cbr -e 1000 -c 2 -i 2 -a 2 -x {1.0 5.1 2 ------- null}
- -t 0.135714285714286 -s 1 -d 2 -p cbr -e 1000 -c 2 -i 2 -a 2 -x {1.0 5.1 2 ------- null}
h -t 0.135714285714286 -s 1 -d 2 -p cbr -e 1000 -c 2 -i 2 -a 2 -x {1.0 5.1 -1 ------- null}
+ -t 0.153571428571429 -s 1 -d 2 -p cbr -e 1000 -c 2 -i 3 -a 2 -x {1.0 5.1 3 ------- null}
- -t 0.153571428571429 -s 1 -d 2 -p cbr -e 1000 -c 2 -i 3 -a 2 -x {1.0 5.1 3 ------- null}
h -t 0.153571428571429 -s 1 -d 2 -p cbr -e 1000 -c 2 -i 3 -a 2 -x {1.0 5.1 -1 ------- null}
+ -t 0.171428571428571 -s 1 -d 2 -p cbr -e 1000 -c 2 -i 4 -a 2 -x {1.0 5.1 4 ------- null}
- -t 0.171428571428571 -s 1 -d 2 -p cbr -e 1000 -c 2 -i 4 -a 2 -x {1.0 5.1 4 ------- null}
h -t 0.171428571428571 -s 1 -d 2 -p cbr -e 1000 -c 2 -i 4 -a 2 -x {1.0 5.1 -1 ------- null}
+ -t 0.189285714285714 -s 1 -d 2 -p cbr -e 1000 -c 2 -i 5 -a 2 -x {1.0 5.1 5 ------- null}
- -t 0.189285714285714 -s 1 -d 2 -p cbr -e 1000 -c 2 -i 5 -a 2 -x {1.0 5.1 5 ------- null}
h -t 0.189285714285714 -s 1 -d 2 -p cbr -e 1000 -c 2 -i 5 -a 2 -x {1.0 5.1 -1 ------- null}
+ -t 0.207142857142857 -s 1 -d 2 -p cbr -e 1000 -c 2 -i 6 -a 2 -x {1.0 5.1 6 ------- null}
- -t 0.207142857142857 -s 1 -d 2 -p cbr -e 1000 -c 2 -i 6 -a 2 -x {1.0 5.1 6 ------- null}
h -t 0.207142857142857 -s 1 -d 2 -p cbr -e 1000 -c 2 -i 6 -a 2 -x {1.0 5.1 -1 ------- null}
r -t 0.216 -s 1 -d 2 -p cbr -e 1000 -c 2 -i 0 -a 2 -x {1.0 5.1 0 ------- null}
+ -t 0.216 -s 2 -d 3 -p cbr -e 1000 -c 2 -i 0 -a 2 -x {1.0 5.1 0 ------- null}
- -t 0.216 -s 2 -d 3 -p cbr -e 1000 -c 2 -i 0 -a 2 -x {1.0 5.1 0 ------- null}
h -t 0.216 -s 2 -d 3 -p cbr -e 1000 -c 2 -i 0 -a 2 -x {1.0 5.1 -1 ------- null}
+ -t 0.225 -s 1 -d 2 -p cbr -e 1000 -c 2 -i 7 -a 2 -x {1.0 5.1 7 ------- null}
- -t 0.225 -s 1 -d 2 -p cbr -e 1000 -c 2 -i 7 -a 2 -x {1.0 5.1 7 ------- null}
h -t 0.225 -s 1 -d 2 -p cbr -e 1000 -c 2 -i 7 -a 2 -x {1.0 5.1 -1 ------- null}
r -t 0.233857142857143 -s 1 -d 2 -p cbr -e 1000 -c 2 -i 1 -a 2 -x {1.0 5.1 1 ------- null}
+ -t 0.233857142857143 -s 2 -d 3 -p cbr -e 1000 -c 2 -i 1 -a 2 -x {1.0 5.1 1 ------- null}
- -t 0.233857142857143 -s 2 -d 3 -p cbr -e 1000 -c 2 -i 1 -a 2 -x {1.0 5.1 1 ------- null}
h -t 0.233857142857143 -s 2 -d 3 -p cbr -e 1000 -c 2 -i 1 -a 2 -x {1.0 5.1 -1 ------- null}
+ -t 0.242857142857143 -s 1 -d 2 -p cbr -e 1000 -c 2 -i 8 -a 2 -x {1.0 5.1 8 ------- null}
- -t 0.242857142857143 -s 1 -d 2 -p cbr -e 1000 -c 2 -i 8 -a 2 -x {1.0 5.1 8 ------- null}
h -t 0.242857142857143 -s 1 -d 2 -p cbr -e 1000 -c 2 -i 8 -a 2 -x {1.0 5.1 -1 ------- null}
r -t 0.251714285714286 -s 1 -d 2 -p cbr -e 1000 -c 2 -i 2 -a 2 -x {1.0 5.1 2 ------- null}
+ -t 0.251714285714286 -s 2 -d 3 -p cbr -e 1000 -c 2 -i 2 -a 2 -x {1.0 5.1 2 ------- null}
- -t 0.251714285714286 -s 2 -d 3 -p cbr -e 1000 -c 2 -i 2 -a 2 -x {1.0 5.1 2 ------- null}
h -t 0.251714285714286 -s 2 -d 3 -p cbr -e 1000 -c 2 -i 2 -a 2 -x {1.0 5.1 -1 ------- null}
+ -t 0.260714285714286 -s 1 -d 2 -p cbr -e 1000 -c 2 -i 9 -a 2 -x {1.0 5.1 9 ------- null}
- -t 0.260714285714286 -s 1 -d 2 -p cbr -e 1000 -c 2 -i 9 -a 2 -x {1.0 5.1 9 ------- null}
h -t 0.260714285714286 -s 1 -d 2 -p cbr -e 1000 -c 2 -i 9 -a 2 -x {1.0 5.1 -1 ------- null}
r -t 0.269571428571429 -s 1 -d 2 -p cbr -e 1000 -c 2 -i 3 -a 2 -x {1.0 5.1 3 ------- null}
+ -t 0.269571428571429 -s 2 -d 3 -p cbr -e 1000 -c 2 -i 3 -a 2 -x {1.0 5.1 3 ------- null}
- -t 0.269571428571429 -s 2 -d 3 -p cbr -e 1000 -c 2 -i 3 -a 2 -x {1.0 5.1 3 ------- null}
h -t 0.269571428571429 -s 2 -d 3 -p cbr -e 1000 -c 2 -i 3 -a 2 -x {1.0 5.1 -1 ------- null}
+ -t 0.278571428571429 -s 1 -d 2 -p cbr -e 1000 -c 2 -i 10 -a 2 -x {1.0 5.1 10 ------- null}
- -t 0.278571428571429 -s 1 -d 2 -p cbr -e 1000 -c 2 -i 10 -a 2 -x {1.0 5.1 10 ------- null}
h -t 0.278571428571429 -s 1 -d 2 -p cbr -e 1000 -c 2 -i 10 -a 2 -x {1.0 5.1 -1 ------- null}
r -t 0.287428571428571 -s 1 -d 2 -p cbr -e 1000 -c 2 -i 4 -a 2 -x {1.0 5.1 4 ------- null}
+ -t 0.287428571428571 -s 2 -d 3 -p cbr -e 1000 -c 2 -i 4 -a 2 -x {1.0 5.1 4 ------- null}
- -t 0.287428571428571 -s 2 -d 3 -p cbr -e 1000 -c 2 -i 4 -a 2 -x {1.0 5.1 4 ------- null}
h -t 0.287428571428571 -s 2 -d 3 -p cbr -e 1000 -c 2 -i 4 -a 2 -x {1.0 5.1 -1 ------- null}
+ -t 0.296428571428571 -s 1 -d 2 -p cbr -e 1000 -c 2 -i 11 -a 2 -x {1.0 5.1 11 ------- null}
- -t 0.296428571428571 -s 1 -d 2 -p cbr -e 1000 -c 2 -i 11 -a 2 -x {1.0 5.1 11 ------- null}
h -t 0.296428571428571 -s 1 -d 2 -p cbr -e 1000 -c 2 -i 11 -a 2 -x {1.0 5.1 -1 ------- null}
r -t 0.305285714285714 -s 1 -d 2 -p cbr -e 1000 -c 2 -i 5 -a 2 -x {1.0 5.1 5 ------- null}
+ -t 0.305285714285714 -s 2 -d 3 -p cbr -e 1000 -c 2 -i 5 -a 2 -x {1.0 5.1 5 ------- null}
- -t 0.305285714285714 -s 2 -d 3 -p cbr -e 1000 -c 2 -i 5 -a 2 -x {1.0 5.1 5 ------- null}
h -t 0.305285714285714 -s 2 -d 3 -p cbr -e 1000 -c 2 -i 5 -a 2 -x {1.0 5.1 -1 ------- null}
+ -t 0.314285714285714 -s 1 -d 2 -p cbr -e 1000 -c 2 -i 12 -a 2 -x {1.0 5.1 12 ------- null}
- -t 0.314285714285714 -s 1 -d 2 -p cbr -e 1000 -c 2 -i 12 -a 2 -x {1.0 5.1 12 ------- null}
h -t 0.314285714285714 -s 1 -d 2 -p cbr -e 1000 -c 2 -i 12 -a 2 -x {1.0 5.1 -1 ------- null}
r -t 0.323142857142857 -s 1 -d 2 -p cbr -e 1000 -c 2 -i 6 -a 2 -x {1.0 5.1 6 ------- null}
+ -t 0.323142857142857 -s 2 -d 3 -p cbr -e 1000 -c 2 -i 6 -a 2 -x {1.0 5.1 6 ------- null}
- -t 0.323142857142857 -s 2 -d 3 -p cbr -e 1000 -c 2 -i 6 -a 2 -x {1.0 5.1 6 ------- null}
h -t 0.323142857142857 -s 2 -d 3 -p cbr -e 1000 -c 2 -i 6 -a 2 -x {1.0 5.1 -1 ------- null}
r -t 0.332 -s 2 -d 3 -p cbr -e 1000 -c 2 -i 0 -a 2 -x {1.0 5.1 0 ------- null}
+ -t 0.332 -s 3 -d 5 -p cbr -e 1000 -c 2 -i 0 -a 2 -x {1.0 5.1 0 ------- null}
- -t 0.332 -s 3 -d 5 -p cbr -e 1000 -c 2 -i 0 -a 2 -x {1.0 5.1 0 ------- null}
h -t 0.332 -s 3 -d 5 -p cbr -e 1000 -c 2 -i 0 -a 2 -x {1.0 5.1 -1 ------- null}
+ -t 0.332142857142857 -s 1 -d 2 -p cbr -e 1000 -c 2 -i 13 -a 2 -x {1.0 5.1 13 ------- null}
- -t 0.332142857142857 -s 1 -d 2 -p cbr -e 1000 -c 2 -i 13 -a 2 -x {1.0 5.1 13 ------- null}
h -t 0.332142857142857 -s 1 -d 2 -p cbr -e 1000 -c 2 -i 13 -a 2 -x {1.0 5.1 -1 ------- null}
r -t 0.341 -s 1 -d 2 -p cbr -e 1000 -c 2 -i 7 -a 2 -x {1.0 5.1 7 ------- null}
+ -t 0.341 -s 2 -d 3 -p cbr -e 1000 -c 2 -i 7 -a 2 -x {1.0 5.1 7 ------- null}
- -t 0.341 -s 2 -d 3 -p cbr -e 1000 -c 2 -i 7 -a 2 -x {1.0 5.1 7 ------- null}
h -t 0.341 -s 2 -d 3 -p cbr -e 1000 -c 2 -i 7 -a 2 -x {1.0 5.1 -1 ------- null}
r -t 0.349857142857143 -s 2 -d 3 -p cbr -e 1000 -c 2 -i 1 -a 2 -x {1.0 5.1 1 ------- null}
+ -t 0.349857142857143 -s 3 -d 5 -p cbr -e 1000 -c 2 -i 1 -a 2 -x {1.0 5.1 1 ------- null}
- -t 0.349857142857143 -s 3 -d 5 -p cbr -e 1000 -c 2 -i 1 -a 2 -x {1.0 5.1 1 ------- null}
h -t 0.349857142857143 -s 3 -d 5 -p cbr -e 1000 -c 2 -i 1 -a 2 -x {1.0 5.1 -1 ------- null}
+ -t 0.35 -s 1 -d 2 -p cbr -e 1000 -c 2 -i 14 -a 2 -x {1.0 5.1 14 ------- null}
- -t 0.35 -s 1 -d 2 -p cbr -e 1000 -c 2 -i 14 -a 2 -x {1.0 5.1 14 ------- null}
h -t 0.35 -s 1 -d 2 -p cbr -e 1000 -c 2 -i 14 -a 2 -x {1.0 5.1 -1 ------- null}
r -t 0.358857142857143 -s 1 -d 2 -p cbr -e 1000 -c 2 -i 8 -a 2 -x {1.0 5.1 8 ------- null}
+ -t 0.358857142857143 -s 2 -d 3 -p cbr -e 1000 -c 2 -i 8 -a 2 -x {1.0 5.1 8 ------- null}
- -t 0.358857142857143 -s 2 -d 3 -p cbr -e 1000 -c 2 -i 8 -a 2 -x {1.0 5.1 8 ------- null}
h -t 0.358857142857143 -s 2 -d 3 -p cbr -e 1000 -c 2 -i 8 -a 2 -x {1.0 5.1 -1 ------- null}
r -t 0.367714285714286 -s 2 -d 3 -p cbr -e 1000 -c 2 -i 2 -a 2 -x {1.0 5.1 2 ------- null}
+ -t 0.367714285714286 -s 3 -d 5 -p cbr -e 1000 -c 2 -i 2 -a 2 -x {1.0 5.1 2 ------- null}
- -t 0.367714285714286 -s 3 -d 5 -p cbr -e 1000 -c 2 -i 2 -a 2 -x {1.0 5.1 2 ------- null}
h -t 0.367714285714286 -s 3 -d 5 -p cbr -e 1000 -c 2 -i 2 -a 2 -x {1.0 5.1 -1 ------- null}
+ -t 0.367857142857143 -s 1 -d 2 -p cbr -e 1000 -c 2 -i 15 -a 2 -x {1.0 5.1 15 ------- null}
- -t 0.367857142857143 -s 1 -d 2 -p cbr -e 1000 -c 2 -i 15 -a 2 -x {1.0 5.1 15 ------- null}
h -t 0.367857142857143 -s 1 -d 2 -p cbr -e 1000 -c 2 -i 15 -a 2 -x {1.0 5.1 -1 ------- null}
r -t 0.376714285714286 -s 1 -d 2 -p cbr -e 1000 -c 2 -i 9 -a 2 -x {1.0 5.1 9 ------- null}
+ -t 0.376714285714286 -s 2 -d 3 -p cbr -e 1000 -c 2 -i 9 -a 2 -x {1.0 5.1 9 ------- null}
- -t 0.376714285714286 -s 2 -d 3 -p cbr -e 1000 -c 2 -i 9 -a 2 -x {1.0 5.1 9 ------- null}
h -t 0.376714285714286 -s 2 -d 3 -p cbr -e 1000 -c 2 -i 9 -a 2 -x {1.0 5.1 -1 ------- null}
r -t 0.385571428571429 -s 2 -d 3 -p cbr -e 1000 -c 2 -i 3 -a 2 -x {1.0 5.1 3 ------- null}
+ -t 0.385571428571429 -s 3 -d 5 -p cbr -e 1000 -c 2 -i 3 -a 2 -x {1.0 5.1 3 ------- null}
- -t 0.385571428571429 -s 3 -d 5 -p cbr -e 1000 -c 2 -i 3 -a 2 -x {1.0 5.1 3 ------- null}
h -t 0.385571428571429 -s 3 -d 5 -p cbr -e 1000 -c 2 -i 3 -a 2 -x {1.0 5.1 -1 ------- null}
+ -t 0.385714285714286 -s 1 -d 2 -p cbr -e 1000 -c 2 -i 16 -a 2 -x {1.0 5.1 16 ------- null}
- -t 0.385714285714286 -s 1 -d 2 -p cbr -e 1000 -c 2 -i 16 -a 2 -x {1.0 5.1 16 ------- null}
h -t 0.385714285714286 -s 1 -d 2 -p cbr -e 1000 -c 2 -i 16 -a 2 -x {1.0 5.1 -1 ------- null}
r -t 0.394571428571429 -s 1 -d 2 -p cbr -e 1000 -c 2 -i 10 -a 2 -x {1.0 5.1 10 ------- null}
+ -t 0.394571428571429 -s 2 -d 3 -p cbr -e 1000 -c 2 -i 10 -a 2 -x {1.0 5.1 10 ------- null}
- -t 0.394571428571429 -s 2 -d 3 -p cbr -e 1000 -c 2 -i 10 -a 2 -x {1.0 5.1 10 ------- null}
h -t 0.394571428571429 -s 2 -d 3 -p cbr -e 1000 -c 2 -i 10 -a 2 -x {1.0 5.1 -1 ------- null}
r -t 0.403428571428571 -s 2 -d 3 -p cbr -e 1000 -c 2 -i 4 -a 2 -x {1.0 5.1 4 ------- null}
+ -t 0.403428571428571 -s 3 -d 5 -p cbr -e 1000 -c 2 -i 4 -a 2 -x {1.0 5.1 4 ------- null}
- -t 0.403428571428571 -s 3 -d 5 -p cbr -e 1000 -c 2 -i 4 -a 2 -x {1.0 5.1 4 ------- null}
h -t 0.403428571428571 -s 3 -d 5 -p cbr -e 1000 -c 2 -i 4 -a 2 -x {1.0 5.1 -1 ------- null}
+ -t 0.403571428571428 -s 1 -d 2 -p cbr -e 1000 -c 2 -i 17 -a 2 -x {1.0 5.1 17 ------- null}
- -t 0.403571428571428 -s 1 -d 2 -p cbr -e 1000 -c 2 -i 17 -a 2 -x {1.0 5.1 17 ------- null}
h -t 0.403571428571428 -s 1 -d 2 -p cbr -e 1000 -c 2 -i 17 -a 2 -x {1.0 5.1 -1 ------- null}
r -t 0.412428571428571 -s 1 -d 2 -p cbr -e 1000 -c 2 -i 11 -a 2 -x {1.0 5.1 11 ------- null}
+ -t 0.412428571428571 -s 2 -d 3 -p cbr -e 1000 -c 2 -i 11 -a 2 -x {1.0 5.1 11 ------- null}
- -t 0.412428571428571 -s 2 -d 3 -p cbr -e 1000 -c 2 -i 11 -a 2 -x {1.0 5.1 11 ------- null}
h -t 0.412428571428571 -s 2 -d 3 -p cbr -e 1000 -c 2 -i 11 -a 2 -x {1.0 5.1 -1 ------- null}
r -t 0.421285714285714 -s 2 -d 3 -p cbr -e 1000 -c 2 -i 5 -a 2 -x {1.0 5.1 5 ------- null}
+ -t 0.421285714285714 -s 3 -d 5 -p cbr -e 1000 -c 2 -i 5 -a 2 -x {1.0 5.1 5 ------- null}
- -t 0.421285714285714 -s 3 -d 5 -p cbr -e 1000 -c 2 -i 5 -a 2 -x {1.0 5.1 5 ------- null}
h -t 0.421285714285714 -s 3 -d 5 -p cbr -e 1000 -c 2 -i 5 -a 2 -x {1.0 5.1 -1 ------- null}
+ -t 0.421428571428571 -s 1 -d 2 -p cbr -e 1000 -c 2 -i 18 -a 2 -x {1.0 5.1 18 ------- null}
- -t 0.421428571428571 -s 1 -d 2 -p cbr -e 1000 -c 2 -i 18 -a 2 -x {1.0 5.1 18 ------- null}
h -t 0.421428571428571 -s 1 -d 2 -p cbr -e 1000 -c 2 -i 18 -a 2 -x {1.0 5.1 -1 ------- null}
r -t 0.430285714285714 -s 1 -d 2 -p cbr -e 1000 -c 2 -i 12 -a 2 -x {1.0 5.1 12 ------- null}
+ -t 0.430285714285714 -s 2 -d 3 -p cbr -e 1000 -c 2 -i 12 -a 2 -x {1.0 5.1 12 ------- null}
- -t 0.430285714285714 -s 2 -d 3 -p cbr -e 1000 -c 2 -i 12 -a 2 -x {1.0 5.1 12 ------- null}
h -t 0.430285714285714 -s 2 -d 3 -p cbr -e 1000 -c 2 -i 12 -a 2 -x {1.0 5.1 -1 ------- null}
r -t 0.439142857142857 -s 2 -d 3 -p cbr -e 1000 -c 2 -i 6 -a 2 -x {1.0 5.1 6 ------- null}
+ -t 0.439142857142857 -s 3 -d 5 -p cbr -e 1000 -c 2 -i 6 -a 2 -x {1.0 5.1 6 ------- null}
- -t 0.439142857142857 -s 3 -d 5 -p cbr -e 1000 -c 2 -i 6 -a 2 -x {1.0 5.1 6 ------- null}
h -t 0.439142857142857 -s 3 -d 5 -p cbr -e 1000 -c 2 -i 6 -a 2 -x {1.0 5.1 -1 ------- null}
+ -t 0.439285714285714 -s 1 -d 2 -p cbr -e 1000 -c 2 -i 19 -a 2 -x {1.0 5.1 19 ------- null}
- -t 0.439285714285714 -s 1 -d 2 -p cbr -e 1000 -c 2 -i 19 -a 2 -x {1.0 5.1 19 ------- null}
h -t 0.439285714285714 -s 1 -d 2 -p cbr -e 1000 -c 2 -i 19 -a 2 -x {1.0 5.1 -1 ------- null}
r -t 0.448 -s 3 -d 5 -p cbr -e 1000 -c 2 -i 0 -a 2 -x {1.0 5.1 0 ------- null}
r -t 0.448142857142857 -s 1 -d 2 -p cbr -e 1000 -c 2 -i 13 -a 2 -x {1.0 5.1 13 ------- null}
+ -t 0.448142857142857 -s 2 -d 3 -p cbr -e 1000 -c 2 -i 13 -a 2 -x {1.0 5.1 13 ------- null}
- -t 0.448142857142857 -s 2 -d 3 -p cbr -e 1000 -c 2 -i 13 -a 2 -x {1.0 5.1 13 ------- null}
h -t 0.448142857142857 -s 2 -d 3 -p cbr -e 1000 -c 2 -i 13 -a 2 -x {1.0 5.1 -1 ------- null}
r -t 0.457 -s 2 -d 3 -p cbr -e 1000 -c 2 -i 7 -a 2 -x {1.0 5.1 7 ------- null}
+ -t 0.457 -s 3 -d 5 -p cbr -e 1000 -c 2 -i 7 -a 2 -x {1.0 5.1 7 ------- null}
- -t 0.457 -s 3 -d 5 -p cbr -e 1000 -c 2 -i 7 -a 2 -x {1.0 5.1 7 ------- null}
h -t 0.457 -s 3 -d 5 -p cbr -e 1000 -c 2 -i 7 -a 2 -x {1.0 5.1 -1 ------- null}
+ -t 0.457142857142857 -s 1 -d 2 -p cbr -e 1000 -c 2 -i 20 -a 2 -x {1.0 5.1 20 ------- null}
- -t 0.457142857142857 -s 1 -d 2 -p cbr -e 1000 -c 2 -i 20 -a 2 -x {1.0 5.1 20 ------- null}
h -t 0.457142857142857 -s 1 -d 2 -p cbr -e 1000 -c 2 -i 20 -a 2 -x {1.0 5.1 -1 ------- null}
r -t 0.465857142857143 -s 3 -d 5 -p cbr -e 1000 -c 2 -i 1 -a 2 -x {1.0 5.1 1 ------- null}
r -t 0.466 -s 1 -d 2 -p cbr -e 1000 -c 2 -i 14 -a 2 -x {1.0 5.1 14 ------- null}
+ -t 0.466 -s 2 -d 3 -p cbr -e 1000 -c 2 -i 14 -a 2 -x {1.0 5.1 14 ------- null}
- -t 0.466 -s 2 -d 3 -p cbr -e 1000 -c 2 -i 14 -a 2 -x {1.0 5.1 14 ------- null}
h -t 0.466 -s 2 -d 3 -p cbr -e 1000 -c 2 -i 14 -a 2 -x {1.0 5.1 -1 ------- null}
r -t 0.474857142857143 -s 2 -d 3 -p cbr -e 1000 -c 2 -i 8 -a 2 -x {1.0 5.1 8 ------- null}
+ -t 0.474857142857143 -s 3 -d 5 -p cbr -e 1000 -c 2 -i 8 -a 2 -x {1.0 5.1 8 ------- null}
- -t 0.474857142857143 -s 3 -d 5 -p cbr -e 1000 -c 2 -i 8 -a 2 -x {1.0 5.1 8 ------- null}
h -t 0.474857142857143 -s 3 -d 5 -p cbr -e 1000 -c 2 -i 8 -a 2 -x {1.0 5.1 -1 ------- null}
+ -t 0.475 -s 1 -d 2 -p cbr -e 1000 -c 2 -i 21 -a 2 -x {1.0 5.1 21 ------- null}
- -t 0.475 -s 1 -d 2 -p cbr -e 1000 -c 2 -i 21 -a 2 -x {1.0 5.1 21 ------- null}
h -t 0.475 -s 1 -d 2 -p cbr -e 1000 -c 2 -i 21 -a 2 -x {1.0 5.1 -1 ------- null}
r -t 0.483714285714286 -s 3 -d 5 -p cbr -e 1000 -c 2 -i 2 -a 2 -x {1.0 5.1 2 ------- null}
r -t 0.483857142857143 -s 1 -d 2 -p cbr -e 1000 -c 2 -i 15 -a 2 -x {1.0 5.1 15 ------- null}
+ -t 0.483857142857143 -s 2 -d 3 -p cbr -e 1000 -c 2 -i 15 -a 2 -x {1.0 5.1 15 ------- null}
- -t 0.483857142857143 -s 2 -d 3 -p cbr -e 1000 -c 2 -i 15 -a 2 -x {1.0 5.1 15 ------- null}
h -t 0.483857142857143 -s 2 -d 3 -p cbr -e 1000 -c 2 -i 15 -a 2 -x {1.0 5.1 -1 ------- null}
r -t 0.492714285714286 -s 2 -d 3 -p cbr -e 1000 -c 2 -i 9 -a 2 -x {1.0 5.1 9 ------- null}
+ -t 0.492714285714286 -s 3 -d 5 -p cbr -e 1000 -c 2 -i 9 -a 2 -x {1.0 5.1 9 ------- null}
- -t 0.492714285714286 -s 3 -d 5 -p cbr -e 1000 -c 2 -i 9 -a 2 -x {1.0 5.1 9 ------- null}
h -t 0.492714285714286 -s 3 -d 5 -p cbr -e 1000 -c 2 -i 9 -a 2 -x {1.0 5.1 -1 ------- null}
+ -t 0.492857142857143 -s 1 -d 2 -p cbr -e 1000 -c 2 -i 22 -a 2 -x {1.0 5.1 22 ------- null}
- -t 0.492857142857143 -s 1 -d 2 -p cbr -e 1000 -c 2 -i 22 -a 2 -x {1.0 5.1 22 ------- null}
h -t 0.492857142857143 -s 1 -d 2 -p cbr -e 1000 -c 2 -i 22 -a 2 -x {1.0 5.1 -1 ------- null}
r -t 0.501571428571429 -s 3 -d 5 -p cbr -e 1000 -c 2 -i 3 -a 2 -x {1.0 5.1 3 ------- null}
r -t 0.501714285714286 -s 1 -d 2 -p cbr -e 1000 -c 2 -i 16 -a 2 -x {1.0 5.1 16 ------- null}
+ -t 0.501714285714286 -s 2 -d 3 -p cbr -e 1000 -c 2 -i 16 -a 2 -x {1.0 5.1 16 ------- null}
- -t 0.501714285714286 -s 2 -d 3 -p cbr -e 1000 -c 2 -i 16 -a 2 -x {1.0 5.1 16 ------- null}
h -t 0.501714285714286 -s 2 -d 3 -p cbr -e 1000 -c 2 -i 16 -a 2 -x {1.0 5.1 -1 ------- null}
r -t 0.510571428571429 -s 2 -d 3 -p cbr -e 1000 -c 2 -i 10 -a 2 -x {1.0 5.1 10 ------- null}
+ -t 0.510571428571429 -s 3 -d 5 -p cbr -e 1000 -c 2 -i 10 -a 2 -x {1.0 5.1 10 ------- null}
- -t 0.510571428571429 -s 3 -d 5 -p cbr -e 1000 -c 2 -i 10 -a 2 -x {1.0 5.1 10 ------- null}
h -t 0.510571428571429 -s 3 -d 5 -p cbr -e 1000 -c 2 -i 10 -a 2 -x {1.0 5.1 -1 ------- null}
+ -t 0.510714285714286 -s 1 -d 2 -p cbr -e 1000 -c 2 -i 23 -a 2 -x {1.0 5.1 23 ------- null}
- -t 0.510714285714286 -s 1 -d 2 -p cbr -e 1000 -c 2 -i 23 -a 2 -x {1.0 5.1 23 ------- null}
h -t 0.510714285714286 -s 1 -d 2 -p cbr -e 1000 -c 2 -i 23 -a 2 -x {1.0 5.1 -1 ------- null}
r -t 0.519428571428571 -s 3 -d 5 -p cbr -e 1000 -c 2 -i 4 -a 2 -x {1.0 5.1 4 ------- null}
r -t 0.519571428571428 -s 1 -d 2 -p cbr -e 1000 -c 2 -i 17 -a 2 -x {1.0 5.1 17 ------- null}
+ -t 0.519571428571428 -s 2 -d 3 -p cbr -e 1000 -c 2 -i 17 -a 2 -x {1.0 5.1 17 ------- null}
- -t 0.519571428571428 -s 2 -d 3 -p cbr -e 1000 -c 2 -i 17 -a 2 -x {1.0 5.1 17 ------- null}
h -t 0.519571428571428 -s 2 -d 3 -p cbr -e 1000 -c 2 -i 17 -a 2 -x {1.0 5.1 -1 ------- null}
r -t 0.528428571428571 -s 2 -d 3 -p cbr -e 1000 -c 2 -i 11 -a 2 -x {1.0 5.1 11 ------- null}
+ -t 0.528428571428571 -s 3 -d 5 -p cbr -e 1000 -c 2 -i 11 -a 2 -x {1.0 5.1 11 ------- null}
- -t 0.528428571428571 -s 3 -d 5 -p cbr -e 1000 -c 2 -i 11 -a 2 -x {1.0 5.1 11 ------- null}
h -t 0.528428571428571 -s 3 -d 5 -p cbr -e 1000 -c 2 -i 11 -a 2 -x {1.0 5.1 -1 ------- null}
+ -t 0.528571428571428 -s 1 -d 2 -p cbr -e 1000 -c 2 -i 24 -a 2 -x {1.0 5.1 24 ------- null}
- -t 0.528571428571428 -s 1 -d 2 -p cbr -e 1000 -c 2 -i 24 -a 2 -x {1.0 5.1 24 ------- null}
h -t 0.528571428571428 -s 1 -d 2 -p cbr -e 1000 -c 2 -i 24 -a 2 -x {1.0 5.1 -1 ------- null}
r -t 0.537285714285714 -s 3 -d 5 -p cbr -e 1000 -c 2 -i 5 -a 2 -x {1.0 5.1 5 ------- null}
r -t 0.537428571428571 -s 1 -d 2 -p cbr -e 1000 -c 2 -i 18 -a 2 -x {1.0 5.1 18 ------- null}
+ -t 0.537428571428571 -s 2 -d 3 -p cbr -e 1000 -c 2 -i 18 -a 2 -x {1.0 5.1 18 ------- null}
- -t 0.537428571428571 -s 2 -d 3 -p cbr -e 1000 -c 2 -i 18 -a 2 -x {1.0 5.1 18 ------- null}
h -t 0.537428571428571 -s 2 -d 3 -p cbr -e 1000 -c 2 -i 18 -a 2 -x {1.0 5.1 -1 ------- null}
r -t 0.546285714285714 -s 2 -d 3 -p cbr -e 1000 -c 2 -i 12 -a 2 -x {1.0 5.1 12 ------- null}
+ -t 0.546285714285714 -s 3 -d 5 -p cbr -e 1000 -c 2 -i 12 -a 2 -x {1.0 5.1 12 ------- null}
- -t 0.546285714285714 -s 3 -d 5 -p cbr -e 1000 -c 2 -i 12 -a 2 -x {1.0 5.1 12 ------- null}
h -t 0.546285714285714 -s 3 -d 5 -p cbr -e 1000 -c 2 -i 12 -a 2 -x {1.0 5.1 -1 ------- null}
+ -t 0.546428571428571 -s 1 -d 2 -p cbr -e 1000 -c 2 -i 25 -a 2 -x {1.0 5.1 25 ------- null}
- -t 0.546428571428571 -s 1 -d 2 -p cbr -e 1000 -c 2 -i 25 -a 2 -x {1.0 5.1 25 ------- null}
h -t 0.546428571428571 -s 1 -d 2 -p cbr -e 1000 -c 2 -i 25 -a 2 -x {1.0 5.1 -1 ------- null}
r -t 0.555142857142857 -s 3 -d 5 -p cbr -e 1000 -c 2 -i 6 -a 2 -x {1.0 5.1 6 ------- null}
r -t 0.555285714285714 -s 1 -d 2 -p cbr -e 1000 -c 2 -i 19 -a 2 -x {1.0 5.1 19 ------- null}
+ -t 0.555285714285714 -s 2 -d 3 -p cbr -e 1000 -c 2 -i 19 -a 2 -x {1.0 5.1 19 ------- null}
- -t 0.555285714285714 -s 2 -d 3 -p cbr -e 1000 -c 2 -i 19 -a 2 -x {1.0 5.1 19 ------- null}
h -t 0.555285714285714 -s 2 -d 3 -p cbr -e 1000 -c 2 -i 19 -a 2 -x {1.0 5.1 -1 ------- null}
r -t 0.564142857142857 -s 2 -d 3 -p cbr -e 1000 -c 2 -i 13 -a 2 -x {1.0 5.1 13 ------- null}
+ -t 0.564142857142857 -s 3 -d 5 -p cbr -e 1000 -c 2 -i 13 -a 2 -x {1.0 5.1 13 ------- null}
- -t 0.564142857142857 -s 3 -d 5 -p cbr -e 1000 -c 2 -i 13 -a 2 -x {1.0 5.1 13 ------- null}
h -t 0.564142857142857 -s 3 -d 5 -p cbr -e 1000 -c 2 -i 13 -a 2 -x {1.0 5.1 -1 ------- null}
+ -t 0.564285714285714 -s 1 -d 2 -p cbr -e 1000 -c 2 -i 26 -a 2 -x {1.0 5.1 26 ------- null}
- -t 0.564285714285714 -s 1 -d 2 -p cbr -e 1000 -c 2 -i 26 -a 2 -x {1.0 5.1 26 ------- null}
h -t 0.564285714285714 -s 1 -d 2 -p cbr -e 1000 -c 2 -i 26 -a 2 -x {1.0 5.1 -1 ------- null}
r -t 0.573 -s 3 -d 5 -p cbr -e 1000 -c 2 -i 7 -a 2 -x {1.0 5.1 7 ------- null}
r -t 0.573142857142857 -s 1 -d 2 -p cbr -e 1000 -c 2 -i 20 -a 2 -x {1.0 5.1 20 ------- null}
+ -t 0.573142857142857 -s 2 -d 3 -p cbr -e 1000 -c 2 -i 20 -a 2 -x {1.0 5.1 20 ------- null}
- -t 0.573142857142857 -s 2 -d 3 -p cbr -e 1000 -c 2 -i 20 -a 2 -x {1.0 5.1 20 ------- null}
h -t 0.573142857142857 -s 2 -d 3 -p cbr -e 1000 -c 2 -i 20 -a 2 -x {1.0 5.1 -1 ------- null}
r -t 0.582 -s 2 -d 3 -p cbr -e 1000 -c 2 -i 14 -a 2 -x {1.0 5.1 14 ------- null}
+ -t 0.582 -s 3 -d 5 -p cbr -e 1000 -c 2 -i 14 -a 2 -x {1.0 5.1 14 ------- null}
- -t 0.582 -s 3 -d 5 -p cbr -e 1000 -c 2 -i 14 -a 2 -x {1.0 5.1 14 ------- null}
h -t 0.582 -s 3 -d 5 -p cbr -e 1000 -c 2 -i 14 -a 2 -x {1.0 5.1 -1 ------- null}
+ -t 0.582142857142857 -s 1 -d 2 -p cbr -e 1000 -c 2 -i 27 -a 2 -x {1.0 5.1 27 ------- null}
- -t 0.582142857142857 -s 1 -d 2 -p cbr -e 1000 -c 2 -i 27 -a 2 -x {1.0 5.1 27 ------- null}
h -t 0.582142857142857 -s 1 -d 2 -p cbr -e 1000 -c 2 -i 27 -a 2 -x {1.0 5.1 -1 ------- null}
r -t 0.590857142857143 -s 3 -d 5 -p cbr -e 1000 -c 2 -i 8 -a 2 -x {1.0 5.1 8 ------- null}
r -t 0.591 -s 1 -d 2 -p cbr -e 1000 -c 2 -i 21 -a 2 -x {1.0 5.1 21 ------- null}
+ -t 0.591 -s 2 -d 3 -p cbr -e 1000 -c 2 -i 21 -a 2 -x {1.0 5.1 21 ------- null}
- -t 0.591 -s 2 -d 3 -p cbr -e 1000 -c 2 -i 21 -a 2 -x {1.0 5.1 21 ------- null}
h -t 0.591 -s 2 -d 3 -p cbr -e 1000 -c 2 -i 21 -a 2 -x {1.0 5.1 -1 ------- null}
r -t 0.599857142857143 -s 2 -d 3 -p cbr -e 1000 -c 2 -i 15 -a 2 -x {1.0 5.1 15 ------- null}
+ -t 0.599857142857143 -s 3 -d 5 -p cbr -e 1000 -c 2 -i 15 -a 2 -x {1.0 5.1 15 ------- null}
- -t 0.599857142857143 -s 3 -d 5 -p cbr -e 1000 -c 2 -i 15 -a 2 -x {1.0 5.1 15 ------- null}
h -t 0.599857142857143 -s 3 -d 5 -p cbr -e 1000 -c 2 -i 15 -a 2 -x {1.0 5.1 -1 ------- null}
+ -t 0.6 -s 1 -d 2 -p cbr -e 1000 -c 2 -i 28 -a 2 -x {1.0 5.1 28 ------- null}
- -t 0.6 -s 1 -d 2 -p cbr -e 1000 -c 2 -i 28 -a 2 -x {1.0 5.1 28 ------- null}
h -t 0.6 -s 1 -d 2 -p cbr -e 1000 -c 2 -i 28 -a 2 -x {1.0 5.1 -1 ------- null}
r -t 0.608714285714286 -s 3 -d 5 -p cbr -e 1000 -c 2 -i 9 -a 2 -x {1.0 5.1 9 ------- null}
r -t 0.608857142857143 -s 1 -d 2 -p cbr -e 1000 -c 2 -i 22 -a 2 -x {1.0 5.1 22 ------- null}
+ -t 0.608857142857143 -s 2 -d 3 -p cbr -e 1000 -c 2 -i 22 -a 2 -x {1.0 5.1 22 ------- null}
- -t 0.608857142857143 -s 2 -d 3 -p cbr -e 1000 -c 2 -i 22 -a 2 -x {1.0 5.1 22 ------- null}
h -t 0.608857142857143 -s 2 -d 3 -p cbr -e 1000 -c 2 -i 22 -a 2 -x {1.0 5.1 -1 ------- null}
r -t 0.617714285714286 -s 2 -d 3 -p cbr -e 1000 -c 2 -i 16 -a 2 -x {1.0 5.1 16 ------- null}
+ -t 0.617714285714286 -s 3 -d 5 -p cbr -e 1000 -c 2 -i 16 -a 2 -x {1.0 5.1 16 ------- null}
- -t 0.617714285714286 -s 3 -d 5 -p cbr -e 1000 -c 2 -i 16 -a 2 -x {1.0 5.1 16 ------- null}
h -t 0.617714285714286 -s 3 -d 5 -p cbr -e 1000 -c 2 -i 16 -a 2 -x {1.0 5.1 -1 ------- null}
+ -t 0.617857142857143 -s 1 -d 2 -p cbr -e 1000 -c 2 -i 29 -a 2 -x {1.0 5.1 29 ------- null}
- -t 0.617857142857143 -s 1 -d 2 -p cbr -e 1000 -c 2 -i 29 -a 2 -x {1.0 5.1 29 ------- null}
h -t 0.617857142857143 -s 1 -d 2 -p cbr -e 1000 -c 2 -i 29 -a 2 -x {1.0 5.1 -1 ------- null}
r -t 0.626571428571429 -s 3 -d 5 -p cbr -e 1000 -c 2 -i 10 -a 2 -x {1.0 5.1 10 ------- null}
r -t 0.626714285714286 -s 1 -d 2 -p cbr -e 1000 -c 2 -i 23 -a 2 -x {1.0 5.1 23 ------- null}
+ -t 0.626714285714286 -s 2 -d 3 -p cbr -e 1000 -c 2 -i 23 -a 2 -x {1.0 5.1 23 ------- null}
- -t 0.626714285714286 -s 2 -d 3 -p cbr -e 1000 -c 2 -i 23 -a 2 -x {1.0 5.1 23 ------- null}
h -t 0.626714285714286 -s 2 -d 3 -p cbr -e 1000 -c 2 -i 23 -a 2 -x {1.0 5.1 -1 ------- null}
r -t 0.635571428571428 -s 2 -d 3 -p cbr -e 1000 -c 2 -i 17 -a 2 -x {1.0 5.1 17 ------- null}
+ -t 0.635571428571428 -s 3 -d 5 -p cbr -e 1000 -c 2 -i 17 -a 2 -x {1.0 5.1 17 ------- null}
- -t 0.635571428571428 -s 3 -d 5 -p cbr -e 1000 -c 2 -i 17 -a 2 -x {1.0 5.1 17 ------- null}
h -t 0.635571428571428 -s 3 -d 5 -p cbr -e 1000 -c 2 -i 17 -a 2 -x {1.0 5.1 -1 ------- null}
+ -t 0.635714285714286 -s 1 -d 2 -p cbr -e 1000 -c 2 -i 30 -a 2 -x {1.0 5.1 30 ------- null}
- -t 0.635714285714286 -s 1 -d 2 -p cbr -e 1000 -c 2 -i 30 -a 2 -x {1.0 5.1 30 ------- null}
h -t 0.635714285714286 -s 1 -d 2 -p cbr -e 1000 -c 2 -i 30 -a 2 -x {1.0 5.1 -1 ------- null}
r -t 0.644428571428571 -s 3 -d 5 -p cbr -e 1000 -c 2 -i 11 -a 2 -x {1.0 5.1 11 ------- null}
r -t 0.644571428571428 -s 1 -d 2 -p cbr -e 1000 -c 2 -i 24 -a 2 -x {1.0 5.1 24 ------- null}
+ -t 0.644571428571428 -s 2 -d 3 -p cbr -e 1000 -c 2 -i 24 -a 2 -x {1.0 5.1 24 ------- null}
- -t 0.644571428571428 -s 2 -d 3 -p cbr -e 1000 -c 2 -i 24 -a 2 -x {1.0 5.1 24 ------- null}
h -t 0.644571428571428 -s 2 -d 3 -p cbr -e 1000 -c 2 -i 24 -a 2 -x {1.0 5.1 -1 ------- null}
r -t 0.653428571428571 -s 2 -d 3 -p cbr -e 1000 -c 2 -i 18 -a 2 -x {1.0 5.1 18 ------- null}
+ -t 0.653428571428571 -s 3 -d 5 -p cbr -e 1000 -c 2 -i 18 -a 2 -x {1.0 5.1 18 ------- null}
- -t 0.653428571428571 -s 3 -d 5 -p cbr -e 1000 -c 2 -i 18 -a 2 -x {1.0 5.1 18 ------- null}
h -t 0.653428571428571 -s 3 -d 5 -p cbr -e 1000 -c 2 -i 18 -a 2 -x {1.0 5.1 -1 ------- null}
+ -t 0.653571428571429 -s 1 -d 2 -p cbr -e 1000 -c 2 -i 31 -a 2 -x {1.0 5.1 31 ------- null}
- -t 0.653571428571429 -s 1 -d 2 -p cbr -e 1000 -c 2 -i 31 -a 2 -x {1.0 5.1 31 ------- null}
h -t 0.653571428571429 -s 1 -d 2 -p cbr -e 1000 -c 2 -i 31 -a 2 -x {1.0 5.1 -1 ------- null}
r -t 0.662285714285714 -s 3 -d 5 -p cbr -e 1000 -c 2 -i 12 -a 2 -x {1.0 5.1 12 ------- null}
r -t 0.662428571428571 -s 1 -d 2 -p cbr -e 1000 -c 2 -i 25 -a 2 -x {1.0 5.1 25 ------- null}
+ -t 0.662428571428571 -s 2 -d 3 -p cbr -e 1000 -c 2 -i 25 -a 2 -x {1.0 5.1 25 ------- null}
- -t 0.662428571428571 -s 2 -d 3 -p cbr -e 1000 -c 2 -i 25 -a 2 -x {1.0 5.1 25 ------- null}
h -t 0.662428571428571 -s 2 -d 3 -p cbr -e 1000 -c 2 -i 25 -a 2 -x {1.0 5.1 -1 ------- null}
r -t 0.671285714285714 -s 2 -d 3 -p cbr -e 1000 -c 2 -i 19 -a 2 -x {1.0 5.1 19 ------- null}
+ -t 0.671285714285714 -s 3 -d 5 -p cbr -e 1000 -c 2 -i 19 -a 2 -x {1.0 5.1 19 ------- null}
- -t 0.671285714285714 -s 3 -d 5 -p cbr -e 1000 -c 2 -i 19 -a 2 -x {1.0 5.1 19 ------- null}
h -t 0.671285714285714 -s 3 -d 5 -p cbr -e 1000 -c 2 -i 19 -a 2 -x {1.0 5.1 -1 ------- null}
+ -t 0.671428571428572 -s 1 -d 2 -p cbr -e 1000 -c 2 -i 32 -a 2 -x {1.0 5.1 32 ------- null}
- -t 0.671428571428572 -s 1 -d 2 -p cbr -e 1000 -c 2 -i 32 -a 2 -x {1.0 5.1 32 ------- null}
h -t 0.671428571428572 -s 1 -d 2 -p cbr -e 1000 -c 2 -i 32 -a 2 -x {1.0 5.1 -1 ------- null}
r -t 0.680142857142857 -s 3 -d 5 -p cbr -e 1000 -c 2 -i 13 -a 2 -x {1.0 5.1 13 ------- null}
r -t 0.680285714285714 -s 1 -d 2 -p cbr -e 1000 -c 2 -i 26 -a 2 -x {1.0 5.1 26 ------- null}
+ -t 0.680285714285714 -s 2 -d 3 -p cbr -e 1000 -c 2 -i 26 -a 2 -x {1.0 5.1 26 ------- null}
- -t 0.680285714285714 -s 2 -d 3 -p cbr -e 1000 -c 2 -i 26 -a 2 -x {1.0 5.1 26 ------- null}
h -t 0.680285714285714 -s 2 -d 3 -p cbr -e 1000 -c 2 -i 26 -a 2 -x {1.0 5.1 -1 ------- null}
r -t 0.689142857142857 -s 2 -d 3 -p cbr -e 1000 -c 2 -i 20 -a 2 -x {1.0 5.1 20 ------- null}
+ -t 0.689142857142857 -s 3 -d 5 -p cbr -e 1000 -c 2 -i 20 -a 2 -x {1.0 5.1 20 ------- null}
- -t 0.689142857142857 -s 3 -d 5 -p cbr -e 1000 -c 2 -i 20 -a 2 -x {1.0 5.1 20 ------- null}
h -t 0.689142857142857 -s 3 -d 5 -p cbr -e 1000 -c 2 -i 20 -a 2 -x {1.0 5.1 -1 ------- null}
+ -t 0.689285714285715 -s 1 -d 2 -p cbr -e 1000 -c 2 -i 33 -a 2 -x {1.0 5.1 33 ------- null}
- -t 0.689285714285715 -s 1 -d 2 -p cbr -e 1000 -c 2 -i 33 -a 2 -x {1.0 5.1 33 ------- null}
h -t 0.689285714285715 -s 1 -d 2 -p cbr -e 1000 -c 2 -i 33 -a 2 -x {1.0 5.1 -1 ------- null}
r -t 0.698 -s 3 -d 5 -p cbr -e 1000 -c 2 -i 14 -a 2 -x {1.0 5.1 14 ------- null}
r -t 0.698142857142857 -s 1 -d 2 -p cbr -e 1000 -c 2 -i 27 -a 2 -x {1.0 5.1 27 ------- null}
+ -t 0.698142857142857 -s 2 -d 3 -p cbr -e 1000 -c 2 -i 27 -a 2 -x {1.0 5.1 27 ------- null}
- -t 0.698142857142857 -s 2 -d 3 -p cbr -e 1000 -c 2 -i 27 -a 2 -x {1.0 5.1 27 ------- null}
h -t 0.698142857142857 -s 2 -d 3 -p cbr -e 1000 -c 2 -i 27 -a 2 -x {1.0 5.1 -1 ------- null}
r -t 0.707 -s 2 -d 3 -p cbr -e 1000 -c 2 -i 21 -a 2 -x {1.0 5.1 21 ------- null}
+ -t 0.707 -s 3 -d 5 -p cbr -e 1000 -c 2 -i 21 -a 2 -x {1.0 5.1 21 ------- null}
- -t 0.707 -s 3 -d 5 -p cbr -e 1000 -c 2 -i 21 -a 2 -x {1.0 5.1 21 ------- null}
h -t 0.707 -s 3 -d 5 -p cbr -e 1000 -c 2 -i 21 -a 2 -x {1.0 5.1 -1 ------- null}
+ -t 0.707142857142858 -s 1 -d 2 -p cbr -e 1000 -c 2 -i 34 -a 2 -x {1.0 5.1 34 ------- null}
- -t 0.707142857142858 -s 1 -d 2 -p cbr -e 1000 -c 2 -i 34 -a 2 -x {1.0 5.1 34 ------- null}
h -t 0.707142857142858 -s 1 -d 2 -p cbr -e 1000 -c 2 -i 34 -a 2 -x {1.0 5.1 -1 ------- null}
r -t 0.715857142857143 -s 3 -d 5 -p cbr -e 1000 -c 2 -i 15 -a 2 -x {1.0 5.1 15 ------- null}
r -t 0.716 -s 1 -d 2 -p cbr -e 1000 -c 2 -i 28 -a 2 -x {1.0 5.1 28 ------- null}