+ 0.1 1 2 cbr 1000 ------- 2 1.0 5.1 0 0
- 0.1 1 2 cbr 1000 ------- 2 1.0 5.1 0 0
+ 0.117857 1 2 cbr 1000 ------- 2 1.0 5.1 1 1
- 0.117857 1 2 cbr 1000 ------- 2 1.0 5.1 1 1
+ 0.135714 1 2 cbr 1000 ------- 2 1.0 5.1 2 2
- 0.135714 1 2 cbr 1000 ------- 2 1.0 5.1 2 2
+ 0.153571 1 2 cbr 1000 ------- 2 1.0 5.1 3 3
- 0.153571 1 2 cbr 1000 ------- 2 1.0 5.1 3 3
+ 0.171429 1 2 cbr 1000 ------- 2 1.0 5.1 4 4
- 0.171429 1 2 cbr 1000 ------- 2 1.0 5.1 4 4
+ 0.189286 1 2 cbr 1000 ------- 2 1.0 5.1 5 5
- 0.189286 1 2 cbr 1000 ------- 2 1.0 5.1 5 5
+ 0.207143 1 2 cbr 1000 ------- 2 1.0 5.1 6 6
- 0.207143 1 2 cbr 1000 ------- 2 1.0 5.1 6 6
r 0.216 1 2 cbr 1000 ------- 2 1.0 5.1 0 0
+ 0.216 2 3 cbr 1000 ------- 2 1.0 5.1 0 0
- 0.216 2 3 cbr 1000 ------- 2 1.0 5.1 0 0
+ 0.225 1 2 cbr 1000 ------- 2 1.0 5.1 7 7
- 0.225 1 2 cbr 1000 ------- 2 1.0 5.1 7 7
r 0.233857 1 2 cbr 1000 ------- 2 1.0 5.1 1 1
+ 0.233857 2 3 cbr 1000 ------- 2 1.0 5.1 1 1
- 0.233857 2 3 cbr 1000 ------- 2 1.0 5.1 1 1
+ 0.242857 1 2 cbr 1000 ------- 2 1.0 5.1 8 8
- 0.242857 1 2 cbr 1000 ------- 2 1.0 5.1 8 8
r 0.251714 1 2 cbr 1000 ------- 2 1.0 5.1 2 2
+ 0.251714 2 3 cbr 1000 ------- 2 1.0 5.1 2 2
- 0.251714 2 3 cbr 1000 ------- 2 1.0 5.1 2 2
+ 0.260714 1 2 cbr 1000 ------- 2 1.0 5.1 9 9
- 0.260714 1 2 cbr 1000 ------- 2 1.0 5.1 9 9
r 0.269571 1 2 cbr 1000 ------- 2 1.0 5.1 3 3
+ 0.269571 2 3 cbr 1000 ------- 2 1.0 5.1 3 3
- 0.269571 2 3 cbr 1000 ------- 2 1.0 5.1 3 3
+ 0.278571 1 2 cbr 1000 ------- 2 1.0 5.1 10 10
- 0.278571 1 2 cbr 1000 ------- 2 1.0 5.1 10 10
r 0.287429 1 2 cbr 1000 ------- 2 1.0 5.1 4 4
+ 0.287429 2 3 cbr 1000 ------- 2 1.0 5.1 4 4
- 0.287429 2 3 cbr 1000 ------- 2 1.0 5.1 4 4
+ 0.296429 1 2 cbr 1000 ------- 2 1.0 5.1 11 11
- 0.296429 1 2 cbr 1000 ------- 2 1.0 5.1 11 11
r 0.305286 1 2 cbr 1000 ------- 2 1.0 5.1 5 5
+ 0.305286 2 3 cbr 1000 ------- 2 1.0 5.1 5 5
- 0.305286 2 3 cbr 1000 ------- 2 1.0 5.1 5 5
+ 0.314286 1 2 cbr 1000 ------- 2 1.0 5.1 12 12
- 0.314286 1 2 cbr 1000 ------- 2 1.0 5.1 12 12
r 0.323143 1 2 cbr 1000 ------- 2 1.0 5.1 6 6
+ 0.323143 2 3 cbr 1000 ------- 2 1.0 5.1 6 6
- 0.323143 2 3 cbr 1000 ------- 2 1.0 5.1 6 6
r 0.332 2 3 cbr 1000 ------- 2 1.0 5.1 0 0
+ 0.332 3 5 cbr 1000 ------- 2 1.0 5.1 0 0
- 0.332 3 5 cbr 1000 ------- 2 1.0 5.1 0 0
+ 0.332143 1 2 cbr 1000 ------- 2 1.0 5.1 13 13
- 0.332143 1 2 cbr 1000 ------- 2 1.0 5.1 13 13
r 0.341 1 2 cbr 1000 ------- 2 1.0 5.1 7 7
+ 0.341 2 3 cbr 1000 ------- 2 1.0 5.1 7 7
- 0.341 2 3 cbr 1000 ------- 2 1.0 5.1 7 7
r 0.349857 2 3 cbr 1000 ------- 2 1.0 5.1 1 1
+ 0.349857 3 5 cbr 1000 ------- 2 1.0 5.1 1 1
- 0.349857 3 5 cbr 1000 ------- 2 1.0 5.1 1 1
+ 0.35 1 2 cbr 1000 ------- 2 1.0 5.1 14 14
- 0.35 1 2 cbr 1000 ------- 2 1.0 5.1 14 14
r 0.358857 1 2 cbr 1000 ------- 2 1.0 5.1 8 8
+ 0.358857 2 3 cbr 1000 ------- 2 1.0 5.1 8 8
- 0.358857 2 3 cbr 1000 ------- 2 1.0 5.1 8 8
r 0.367714 2 3 cbr 1000 ------- 2 1.0 5.1 2 2
+ 0.367714 3 5 cbr 1000 ------- 2 1.0 5.1 2 2
- 0.367714 3 5 cbr 1000 ------- 2 1.0 5.1 2 2
+ 0.367857 1 2 cbr 1000 ------- 2 1.0 5.1 15 15
- 0.367857 1 2 cbr 1000 ------- 2 1.0 5.1 15 15
r 0.376714 1 2 cbr 1000 ------- 2 1.0 5.1 9 9
+ 0.376714 2 3 cbr 1000 ------- 2 1.0 5.1 9 9
- 0.376714 2 3 cbr 1000 ------- 2 1.0 5.1 9 9
r 0.385571 2 3 cbr 1000 ------- 2 1.0 5.1 3 3
+ 0.385571 3 5 cbr 1000 ------- 2 1.0 5.1 3 3
- 0.385571 3 5 cbr 1000 ------- 2 1.0 5.1 3 3
+ 0.385714 1 2 cbr 1000 ------- 2 1.0 5.1 16 16
- 0.385714 1 2 cbr 1000 ------- 2 1.0 5.1 16 16
r 0.394571 1 2 cbr 1000 ------- 2 1.0 5.1 10 10
+ 0.394571 2 3 cbr 1000 ------- 2 1.0 5.1 10 10
- 0.394571 2 3 cbr 1000 ------- 2 1.0 5.1 10 10
r 0.403429 2 3 cbr 1000 ------- 2 1.0 5.1 4 4
+ 0.403429 3 5 cbr 1000 ------- 2 1.0 5.1 4 4
- 0.403429 3 5 cbr 1000 ------- 2 1.0 5.1 4 4
+ 0.403571 1 2 cbr 1000 ------- 2 1.0 5.1 17 17
- 0.403571 1 2 cbr 1000 ------- 2 1.0 5.1 17 17
r 0.412429 1 2 cbr 1000 ------- 2 1.0 5.1 11 11
+ 0.412429 2 3 cbr 1000 ------- 2 1.0 5.1 11 11
- 0.412429 2 3 cbr 1000 ------- 2 1.0 5.1 11 11
r 0.421286 2 3 cbr 1000 ------- 2 1.0 5.1 5 5
+ 0.421286 3 5 cbr 1000 ------- 2 1.0 5.1 5 5
- 0.421286 3 5 cbr 1000 ------- 2 1.0 5.1 5 5
+ 0.421429 1 2 cbr 1000 ------- 2 1.0 5.1 18 18
- 0.421429 1 2 cbr 1000 ------- 2 1.0 5.1 18 18
r 0.430286 1 2 cbr 1000 ------- 2 1.0 5.1 12 12
+ 0.430286 2 3 cbr 1000 ------- 2 1.0 5.1 12 12
- 0.430286 2 3 cbr 1000 ------- 2 1.0 5.1 12 12
r 0.439143 2 3 cbr 1000 ------- 2 1.0 5.1 6 6
+ 0.439143 3 5 cbr 1000 ------- 2 1.0 5.1 6 6
- 0.439143 3 5 cbr 1000 ------- 2 1.0 5.1 6 6
+ 0.439286 1 2 cbr 1000 ------- 2 1.0 5.1 19 19
- 0.439286 1 2 cbr 1000 ------- 2 1.0 5.1 19 19
r 0.448 3 5 cbr 1000 ------- 2 1.0 5.1 0 0
r 0.448143 1 2 cbr 1000 ------- 2 1.0 5.1 13 13
+ 0.448143 2 3 cbr 1000 ------- 2 1.0 5.1 13 13
- 0.448143 2 3 cbr 1000 ------- 2 1.0 5.1 13 13
r 0.457 2 3 cbr 1000 ------- 2 1.0 5.1 7 7
+ 0.457 3 5 cbr 1000 ------- 2 1.0 5.1 7 7
- 0.457 3 5 cbr 1000 ------- 2 1.0 5.1 7 7
+ 0.457143 1 2 cbr 1000 ------- 2 1.0 5.1 20 20
- 0.457143 1 2 cbr 1000 ------- 2 1.0 5.1 20 20
r 0.465857 3 5 cbr 1000 ------- 2 1.0 5.1 1 1
r 0.466 1 2 cbr 1000 ------- 2 1.0 5.1 14 14
+ 0.466 2 3 cbr 1000 ------- 2 1.0 5.1 14 14
- 0.466 2 3 cbr 1000 ------- 2 1.0 5.1 14 14
r 0.474857 2 3 cbr 1000 ------- 2 1.0 5.1 8 8
+ 0.474857 3 5 cbr 1000 ------- 2 1.0 5.1 8 8
- 0.474857 3 5 cbr 1000 ------- 2 1.0 5.1 8 8
+ 0.475 1 2 cbr 1000 ------- 2 1.0 5.1 21 21
- 0.475 1 2 cbr 1000 ------- 2 1.0 5.1 21 21
r 0.483714 3 5 cbr 1000 ------- 2 1.0 5.1 2 2
r 0.483857 1 2 cbr 1000 ------- 2 1.0 5.1 15 15
+ 0.483857 2 3 cbr 1000 ------- 2 1.0 5.1 15 15
- 0.483857 2 3 cbr 1000 ------- 2 1.0 5.1 15 15
r 0.492714 2 3 cbr 1000 ------- 2 1.0 5.1 9 9
+ 0.492714 3 5 cbr 1000 ------- 2 1.0 5.1 9 9
- 0.492714 3 5 cbr 1000 ------- 2 1.0 5.1 9 9
+ 0.492857 1 2 cbr 1000 ------- 2 1.0 5.1 22 22
- 0.492857 1 2 cbr 1000 ------- 2 1.0 5.1 22 22
r 0.501571 3 5 cbr 1000 ------- 2 1.0 5.1 3 3
r 0.501714 1 2 cbr 1000 ------- 2 1.0 5.1 16 16
+ 0.501714 2 3 cbr 1000 ------- 2 1.0 5.1 16 16
- 0.501714 2 3 cbr 1000 ------- 2 1.0 5.1 16 16
r 0.510571 2 3 cbr 1000 ------- 2 1.0 5.1 10 10
+ 0.510571 3 5 cbr 1000 ------- 2 1.0 5.1 10 10
- 0.510571 3 5 cbr 1000 ------- 2 1.0 5.1 10 10
+ 0.510714 1 2 cbr 1000 ------- 2 1.0 5.1 23 23
- 0.510714 1 2 cbr 1000 ------- 2 1.0 5.1 23 23
r 0.519429 3 5 cbr 1000 ------- 2 1.0 5.1 4 4
r 0.519571 1 2 cbr 1000 ------- 2 1.0 5.1 17 17
+ 0.519571 2 3 cbr 1000 ------- 2 1.0 5.1 17 17
- 0.519571 2 3 cbr 1000 ------- 2 1.0 5.1 17 17
r 0.528429 2 3 cbr 1000 ------- 2 1.0 5.1 11 11
+ 0.528429 3 5 cbr 1000 ------- 2 1.0 5.1 11 11
- 0.528429 3 5 cbr 1000 ------- 2 1.0 5.1 11 11
+ 0.528571 1 2 cbr 1000 ------- 2 1.0 5.1 24 24
- 0.528571 1 2 cbr 1000 ------- 2 1.0 5.1 24 24
r 0.537286 3 5 cbr 1000 ------- 2 1.0 5.1 5 5
r 0.537429 1 2 cbr 1000 ------- 2 1.0 5.1 18 18
+ 0.537429 2 3 cbr 1000 ------- 2 1.0 5.1 18 18
- 0.537429 2 3 cbr 1000 ------- 2 1.0 5.1 18 18
r 0.546286 2 3 cbr 1000 ------- 2 1.0 5.1 12 12
+ 0.546286 3 5 cbr 1000 ------- 2 1.0 5.1 12 12
- 0.546286 3 5 cbr 1000 ------- 2 1.0 5.1 12 12
+ 0.546429 1 2 cbr 1000 ------- 2 1.0 5.1 25 25
- 0.546429 1 2 cbr 1000 ------- 2 1.0 5.1 25 25
r 0.555143 3 5 cbr 1000 ------- 2 1.0 5.1 6 6
r 0.555286 1 2 cbr 1000 ------- 2 1.0 5.1 19 19
+ 0.555286 2 3 cbr 1000 ------- 2 1.0 5.1 19 19
- 0.555286 2 3 cbr 1000 ------- 2 1.0 5.1 19 19
r 0.564143 2 3 cbr 1000 ------- 2 1.0 5.1 13 13
+ 0.564143 3 5 cbr 1000 ------- 2 1.0 5.1 13 13
- 0.564143 3 5 cbr 1000 ------- 2 1.0 5.1 13 13
+ 0.564286 1 2 cbr 1000 ------- 2 1.0 5.1 26 26
- 0.564286 1 2 cbr 1000 ------- 2 1.0 5.1 26 26
r 0.573 3 5 cbr 1000 ------- 2 1.0 5.1 7 7
r 0.573143 1 2 cbr 1000 ------- 2 1.0 5.1 20 20
+ 0.573143 2 3 cbr 1000 ------- 2 1.0 5.1 20 20
- 0.573143 2 3 cbr 1000 ------- 2 1.0 5.1 20 20
r 0.582 2 3 cbr 1000 ------- 2 1.0 5.1 14 14
+ 0.582 3 5 cbr 1000 ------- 2 1.0 5.1 14 14
- 0.582 3 5 cbr 1000 ------- 2 1.0 5.1 14 14
+ 0.582143 1 2 cbr 1000 ------- 2 1.0 5.1 27 27
- 0.582143 1 2 cbr 1000 ------- 2 1.0 5.1 27 27
r 0.590857 3 5 cbr 1000 ------- 2 1.0 5.1 8 8
r 0.591 1 2 cbr 1000 ------- 2 1.0 5.1 21 21
+ 0.591 2 3 cbr 1000 ------- 2 1.0 5.1 21 21
- 0.591 2 3 cbr 1000 ------- 2 1.0 5.1 21 21
r 0.599857 2 3 cbr 1000 ------- 2 1.0 5.1 15 15
+ 0.599857 3 5 cbr 1000 ------- 2 1.0 5.1 15 15
- 0.599857 3 5 cbr 1000 ------- 2 1.0 5.1 15 15
+ 0.6 1 2 cbr 1000 ------- 2 1.0 5.1 28 28
- 0.6 1 2 cbr 1000 ------- 2 1.0 5.1 28 28
r 0.608714 3 5 cbr 1000 ------- 2 1.0 5.1 9 9
r 0.608857 1 2 cbr 1000 ------- 2 1.0 5.1 22 22
+ 0.608857 2 3 cbr 1000 ------- 2 1.0 5.1 22 22
- 0.608857 2 3 cbr 1000 ------- 2 1.0 5.1 22 22
r 0.617714 2 3 cbr 1000 ------- 2 1.0 5.1 16 16
+ 0.617714 3 5 cbr 1000 ------- 2 1.0 5.1 16 16
- 0.617714 3 5 cbr 1000 ------- 2 1.0 5.1 16 16
+ 0.617857 1 2 cbr 1000 ------- 2 1.0 5.1 29 29
- 0.617857 1 2 cbr 1000 ------- 2 1.0 5.1 29 29
r 0.626571 3 5 cbr 1000 ------- 2 1.0 5.1 10 10
r 0.626714 1 2 cbr 1000 ------- 2 1.0 5.1 23 23
+ 0.626714 2 3 cbr 1000 ------- 2 1.0 5.1 23 23
- 0.626714 2 3 cbr 1000 ------- 2 1.0 5.1 23 23
r 0.635571 2 3 cbr 1000 ------- 2 1.0 5.1 17 17
+ 0.635571 3 5 cbr 1000 ------- 2 1.0 5.1 17 17
- 0.635571 3 5 cbr 1000 ------- 2 1.0 5.1 17 17
+ 0.635714 1 2 cbr 1000 ------- 2 1.0 5.1 30 30
- 0.635714 1 2 cbr 1000 ------- 2 1.0 5.1 30 30
r 0.644429 3 5 cbr 1000 ------- 2 1.0 5.1 11 11
r 0.644571 1 2 cbr 1000 ------- 2 1.0 5.1 24 24
+ 0.644571 2 3 cbr 1000 ------- 2 1.0 5.1 24 24
- 0.644571 2 3 cbr 1000 ------- 2 1.0 5.1 24 24
r 0.653429 2 3 cbr 1000 ------- 2 1.0 5.1 18 18
+ 0.653429 3 5 cbr 1000 ------- 2 1.0 5.1 18 18
- 0.653429 3 5 cbr 1000 ------- 2 1.0 5.1 18 18
+ 0.653571 1 2 cbr 1000 ------- 2 1.0 5.1 31 31
- 0.653571 1 2 cbr 1000 ------- 2 1.0 5.1 31 31
r 0.662286 3 5 cbr 1000 ------- 2 1.0 5.1 12 12
r 0.662429 1 2 cbr 1000 ------- 2 1.0 5.1 25 25
+ 0.662429 2 3 cbr 1000 ------- 2 1.0 5.1 25 25
- 0.662429 2 3 cbr 1000 ------- 2 1.0 5.1 25 25
r 0.671286 2 3 cbr 1000 ------- 2 1.0 5.1 19 19
+ 0.671286 3 5 cbr 1000 ------- 2 1.0 5.1 19 19
- 0.671286 3 5 cbr 1000 ------- 2 1.0 5.1 19 19
+ 0.671429 1 2 cbr 1000 ------- 2 1.0 5.1 32 32
- 0.671429 1 2 cbr 1000 ------- 2 1.0 5.1 32 32
r 0.680143 3 5 cbr 1000 ------- 2 1.0 5.1 13 13
r 0.680286 1 2 cbr 1000 ------- 2 1.0 5.1 26 26
+ 0.680286 2 3 cbr 1000 ------- 2 1.0 5.1 26 26
- 0.680286 2 3 cbr 1000 ------- 2 1.0 5.1 26 26
r 0.689143 2 3 cbr 1000 ------- 2 1.0 5.1 20 20
+ 0.689143 3 5 cbr 1000 ------- 2 1.0 5.1 20 20
- 0.689143 3 5 cbr 1000 ------- 2 1.0 5.1 20 20
+ 0.689286 1 2 cbr 1000 ------- 2 1.0 5.1 33 33
- 0.689286 1 2 cbr 1000 ------- 2 1.0 5.1 33 33
r 0.698 3 5 cbr 1000 ------- 2 1.0 5.1 14 14
r 0.698143 1 2 cbr 1000 ------- 2 1.0 5.1 27 27
+ 0.698143 2 3 cbr 1000 ------- 2 1.0 5.1 27 27
- 0.698143 2 3 cbr 1000 ------- 2 1.0 5.1 27 27
r 0.707 2 3 cbr 1000 ------- 2 1.0 5.1 21 21
+ 0.707 3 5 cbr 1000 ------- 2 1.0 5.1 21 21
- 0.707 3 5 cbr 1000 ------- 2 1.0 5.1 21 21
+ 0.707143 1 2 cbr 1000 ------- 2 1.0 5.1 34 34
- 0.707143 1 2 cbr 1000 ------- 2 1.0 5.1 34 34
r 0.715857 3 5 cbr 1000 ------- 2 1.0 5.1 15 15
r 0.716 1 2 cbr 1000 ------- 2 1.0 5.1 28 28
+ 0.716 2 3 cbr 1000 ------- 2 1.0 5.1 28 28
- 0.716 2 3 cbr 1000 ------- 2 1.0 5.1 28 28
r 0.724857 2 3 cbr 1000 ------- 2 1.0 5.1 22 22
+ 0.724857 3 5 cbr 1000 ------- 2 1.0 5.1 22 22
- 0.724857 3 5 cbr 1000 ------- 2 1.0 5.1 22 22
+ 0.725 1 2 cbr 1000 ------- 2 1.0 5.1 35 35
- 0.725 1 2 cbr 1000 ------- 2 1.0 5.1 35 35
r 0.733714 3 5 cbr 1000 ------- 2 1.0 5.1 16 16
r 0.733857 1 2 cbr 1000 ------- 2 1.0 5.1 29 29
+ 0.733857 2 3 cbr 1000 ------- 2 1.0 5.1 29 29
- 0.733857 2 3 cbr 1000 ------- 2 1.0 5.1 29 29
r 0.742714 2 3 cbr 1000 ------- 2 1.0 5.1 23 23
+ 0.742714 3 5 cbr 1000 ------- 2 1.0 5.1 23 23
- 0.742714 3 5 cbr 1000 ------- 2 1.0 5.1 23 23
+ 0.742857 1 2 cbr 1000 ------- 2 1.0 5.1 36 36
- 0.742857 1 2 cbr 1000 ------- 2 1.0 5.1 36 36
r 0.751571 3 5 cbr 1000 ------- 2 1.0 5.1 17 17
r 0.751714 1 2 cbr 1000 ------- 2 1.0 5.1 30 30
+ 0.751714 2 3 cbr 1000 ------- 2 1.0 5.1 30 30
- 0.751714 2 3 cbr 1000 ------- 2 1.0 5.1 30 30
r 0.760571 2 3 cbr 1000 ------- 2 1.0 5.1 24 24
+ 0.760571 3 5 cbr 1000 ------- 2 1.0 5.1 24 24
- 0.760571 3 5 cbr 1000 ------- 2 1.0 5.1 24 24
+ 0.760714 1 2 cbr 1000 ------- 2 1.0 5.1 37 37
- 0.760714 1 2 cbr 1000 ------- 2 1.0 5.1 37 37
r 0.769429 3 5 cbr 1000 ------- 2 1.0 5.1 18 18
r 0.769571 1 2 cbr 1000 ------- 2 1.0 5.1 31 31
+ 0.769571 2 3 cbr 1000 ------- 2 1.0 5.1 31 31
- 0.769571 2 3 cbr 1000 ------- 2 1.0 5.1 31 31
r 0.778429 2 3 cbr 1000 ------- 2 1.0 5.1 25 25
+ 0.778429 3 5 cbr 1000 ------- 2 1.0 5.1 25 25
- 0.778429 3 5 cbr 1000 ------- 2 1.0 5.1 25 25
+ 0.778571 1 2 cbr 1000 ------- 2 1.0 5.1 38 38
- 0.778571 1 2 cbr 1000 ------- 2 1.0 5.1 38 38
r 0.787286 3 5 cbr 1000 ------- 2 1.0 5.1 19 19
r 0.787429 1 2 cbr 1000 ------- 2 1.0 5.1 32 32
+ 0.787429 2 3 cbr 1000 ------- 2 1.0 5.1 32 32
- 0.787429 2 3 cbr 1000 ------- 2 1.0 5.1 32 32
r 0.796286 2 3 cbr 1000 ------- 2 1.0 5.1 26 26
+ 0.796286 3 5 cbr 1000 ------- 2 1.0 5.1 26 26
- 0.796286 3 5 cbr 1000 ------- 2 1.0 5.1 26 26
+ 0.796429 1 2 cbr 1000 ------- 2 1.0 5.1 39 39
- 0.796429 1 2 cbr 1000 ------- 2 1.0 5.1 39 39
r 0.805143 3 5 cbr 1000 ------- 2 1.0 5.1 20 20
r 0.805286 1 2 cbr 1000 ------- 2 1.0 5.1 33 33
+ 0.805286 2 3 cbr 1000 ------- 2 1.0 5.1 33 33
- 0.805286 2 3 cbr 1000 ------- 2 1.0 5.1 33 33
r 0.814143 2 3 cbr 1000 ------- 2 1.0 5.1 27 27
+ 0.814143 3 5 cbr 1000 ------- 2 1.0 5.1 27 27
- 0.814143 3 5 cbr 1000 ------- 2 1.0 5.1 27 27
+ 0.814286 1 2 cbr 1000 ------- 2 1.0 5.1 40 40
- 0.814286 1 2 cbr 1000 ------- 2 1.0 5.1 40 40
r 0.823 3 5 cbr 1000 ------- 2 1.0 5.1 21 21
r 0.823143 1 2 cbr 1000 ------- 2 1.0 5.1 34 34
+ 0.823143 2 3 cbr 1000 ------- 2 1.0 5.1 34 34
- 0.823143 2 3 cbr 1000 ------- 2 1.0 5.1 34 34
r 0.832 2 3 cbr 1000 ------- 2 1.0 5.1 28 28
+ 0.832 3 5 cbr 1000 ------- 2 1.0 5.1 28 28
- 0.832 3 5 cbr 1000 ------- 2 1.0 5.1 28 28
+ 0.832143 1 2 cbr 1000 ------- 2 1.0 5.1 41 41
- 0.832143 1 2 cbr 1000 ------- 2 1.0 5.1 41 41
r 0.840857 3 5 cbr 1000 ------- 2 1.0 5.1 22 22
r 0.841 1 2 cbr 1000 ------- 2 1.0 5.1 35 35
+ 0.841 2 3 cbr 1000 ------- 2 1.0 5.1 35 35
- 0.841 2 3 cbr 1000 ------- 2 1.0 5.1 35 35
r 0.849857 2 3 cbr 1000 ------- 2 1.0 5.1 29 29
+ 0.849857 3 5 cbr 1000 ------- 2 1.0 5.1 29 29
- 0.849857 3 5 cbr 1000 ------- 2 1.0 5.1 29 29
+ 0.85 1 2 cbr 1000 ------- 2 1.0 5.1 42 42
- 0.85 1 2 cbr 1000 ------- 2 1.0 5.1 42 42
r 0.858714 3 5 cbr 1000 ------- 2 1.0 5.1 23 23
r 0.858857 1 2 cbr 1000 ------- 2 1.0 5.1 36 36
+ 0.858857 2 3 cbr 1000 ------- 2 1.0 5.1 36 36
- 0.858857 2 3 cbr 1000 ------- 2 1.0 5.1 36 36
r 0.867714 2 3 cbr 1000 ------- 2 1.0 5.1 30 30
+ 0.867714 3 5 cbr 1000 ------- 2 1.0 5.1 30 30
- 0.867714 3 5 cbr 1000 ------- 2 1.0 5.1 30 30
+ 0.867857 1 2 cbr 1000 ------- 2 1.0 5.1 43 43
- 0.867857 1 2 cbr 1000 ------- 2 1.0 5.1 43 43
r 0.876571 3 5 cbr 1000 ------- 2 1.0 5.1 24 24
r 0.876714 1 2 cbr 1000 ------- 2 1.0 5.1 37 37
+ 0.876714 2 3 cbr 1000 ------- 2 1.0 5.1 37 37
- 0.876714 2 3 cbr 1000 ------- 2 1.0 5.1 37 37
r 0.885571 2 3 cbr 1000 ------- 2 1.0 5.1 31 31
+ 0.885571 3 5 cbr 1000 ------- 2 1.0 5.1 31 31
- 0.885571 3 5 cbr 1000 ------- 2 1.0 5.1 31 31
+ 0.885714 1 2 cbr 1000 ------- 2 1.0 5.1 44 44
- 0.885714 1 2 cbr 1000 ------- 2 1.0 5.1 44 44
r 0.894429 3 5 cbr 1000 ------- 2 1.0 5.1 25 25
r 0.894571 1 2 cbr 1000 ------- 2 1.0 5.1 38 38
+ 0.894571 2 3 cbr 1000 ------- 2 1.0 5.1 38 38
- 0.894571 2 3 cbr 1000 ------- 2 1.0 5.1 38 38
r 0.903429 2 3 cbr 1000 ------- 2 1.0 5.1 32 32
+ 0.903429 3 5 cbr 1000 ------- 2 1.0 5.1 32 32
- 0.903429 3 5 cbr 1000 ------- 2 1.0 5.1 32 32
+ 0.903571 1 2 cbr 1000 ------- 2 1.0 5.1 45 45
- 0.903571 1 2 cbr 1000 ------- 2 1.0 5.1 45 45
r 0.912286 3 5 cbr 1000 ------- 2 1.0 5.1 26 26
r 0.912429 1 2 cbr 1000 ------- 2 1.0 5.1 39 39
+ 0.912429 2 3 cbr 1000 ------- 2 1.0 5.1 39 39
- 0.912429 2 3 cbr 1000 ------- 2 1.0 5.1 39 39
r 0.921286 2 3 cbr 1000 ------- 2 1.0 5.1 33 33
+ 0.921286 3 5 cbr 1000 ------- 2 1.0 5.1 33 33
- 0.921286 3 5 cbr 1000 ------- 2 1.0 5.1 33 33
+ 0.921429 1 2 cbr 1000 ------- 2 1.0 5.1 46 46
- 0.921429 1 2 cbr 1000 ------- 2 1.0 5.1 46 46
r 0.930143 3 5 cbr 1000 ------- 2 1.0 5.1 27 27
r 0.930286 1 2 cbr 1000 ------- 2 1.0 5.1 40 40
+ 0.930286 2 3 cbr 1000 ------- 2 1.0 5.1 40 40
- 0.930286 2 3 cbr 1000 ------- 2 1.0 5.1 40 40
r 0.939143 2 3 cbr 1000 ------- 2 1.0 5.1 34 34
+ 0.939143 3 5 cbr 1000 ------- 2 1.0 5.1 34 34
- 0.939143 3 5 cbr 1000 ------- 2 1.0 5.1 34 34
+ 0.939286 1 2 cbr 1000 ------- 2 1.0 5.1 47 47
- 0.939286 1 2 cbr 1000 ------- 2 1.0 5.1 47 47
r 0.948 3 5 cbr 1000 ------- 2 1.0 5.1 28 28
r 0.948143 1 2 cbr 1000 ------- 2 1.0 5.1 41 41
+ 0.948143 2 3 cbr 1000 ------- 2 1.0 5.1 41 41
- 0.948143 2 3 cbr 1000 ------- 2 1.0 5.1 41 41
r 0.957 2 3 cbr 1000 ------- 2 1.0 5.1 35 35
+ 0.957 3 5 cbr 1000 ------- 2 1.0 5.1 35 35
- 0.957 3 5 cbr 1000 ------- 2 1.0 5.1 35 35
+ 0.957143 1 2 cbr 1000 ------- 2 1.0 5.1 48 48
- 0.957143 1 2 cbr 1000 ------- 2 1.0 5.1 48 48
r 0.965857 3 5 cbr 1000 ------- 2 1.0 5.1 29 29
r 0.966 1 2 cbr 1000 ------- 2 1.0 5.1 42 42
+ 0.966 2 3 cbr 1000 ------- 2 1.0 5.1 42 42
- 0.966 2 3 cbr 1000 ------- 2 1.0 5.1 42 42
r 0.974857 2 3 cbr 1000 ------- 2 1.0 5.1 36 36
+ 0.974857 3 5 cbr 1000 ------- 2 1.0 5.1 36 36
- 0.974857 3 5 cbr 1000 ------- 2 1.0 5.1 36 36
+ 0.975 1 2 cbr 1000 ------- 2 1.0 5.1 49 49
- 0.975 1 2 cbr 1000 ------- 2 1.0 5.1 49 49
r 0.983714 3 5 cbr 1000 ------- 2 1.0 5.1 30 30
r 0.983857 1 2 cbr 1000 ------- 2 1.0 5.1 43 43
+ 0.983857 2 3 cbr 1000 ------- 2 1.0 5.1 43 43
- 0.983857 2 3 cbr 1000 ------- 2 1.0 5.1 43 43
r 0.992714 2 3 cbr 1000 ------- 2 1.0 5.1 37 37
+ 0.992714 3 5 cbr 1000 ------- 2 1.0 5.1 37 37
- 0.992714 3 5 cbr 1000 ------- 2 1.0 5.1 37 37
+ 0.992857 1 2 cbr 1000 ------- 2 1.0 5.1 50 50
- 0.992857 1 2 cbr 1000 ------- 2 1.0 5.1 50 50
+ 1 0 2 tcp 40 ------- 1 0.0 5.0 0 51
- 1 0 2 tcp 40 ------- 1 0.0 5.0 0 51
r 1.001571 3 5 cbr 1000 ------- 2 1.0 5.1 31 31
r 1.001714 1 2 cbr 1000 ------- 2 1.0 5.1 44 44
+ 1.001714 2 3 cbr 1000 ------- 2 1.0 5.1 44 44
- 1.001714 2 3 cbr 1000 ------- 2 1.0 5.1 44 44
r 1.010571 2 3 cbr 1000 ------- 2 1.0 5.1 38 38
+ 1.010571 3 5 cbr 1000 ------- 2 1.0 5.1 38 38
- 1.010571 3 5 cbr 1000 ------- 2 1.0 5.1 38 38
+ 1.010714 1 2 cbr 1000 ------- 2 1.0 5.1 51 52
- 1.010714 1 2 cbr 1000 ------- 2 1.0 5.1 51 52
r 1.019429 3 5 cbr 1000 ------- 2 1.0 5.1 32 32
r 1.019571 1 2 cbr 1000 ------- 2 1.0 5.1 45 45
+ 1.019571 2 3 cbr 1000 ------- 2 1.0 5.1 45 45
- 1.019571 2 3 cbr 1000 ------- 2 1.0 5.1 45 45
r 1.028429 2 3 cbr 1000 ------- 2 1.0 5.1 39 39
+ 1.028429 3 5 cbr 1000 ------- 2 1.0 5.1 39 39
- 1.028429 3 5 cbr 1000 ------- 2 1.0 5.1 39 39
+ 1.028571 1 2 cbr 1000 ------- 2 1.0 5.1 52 53
- 1.028571 1 2 cbr 1000 ------- 2 1.0 5.1 52 53
r 1.037286 3 5 cbr 1000 ------- 2 1.0 5.1 33 33
r 1.037429 1 2 cbr 1000 ------- 2 1.0 5.1 46 46
+ 1.037429 2 3 cbr 1000 ------- 2 1.0 5.1 46 46
- 1.037429 2 3 cbr 1000 ------- 2 1.0 5.1 46 46
r 1.046286 2 3 cbr 1000 ------- 2 1.0 5.1 40 40
+ 1.046286 3 5 cbr 1000 ------- 2 1.0 5.1 40 40
- 1.046286 3 5 cbr 1000 ------- 2 1.0 5.1 40 40
+ 1.046429 1 2 cbr 1000 ------- 2 1.0 5.1 53 54
- 1.046429 1 2 cbr 1000 ------- 2 1.0 5.1 53 54
r 1.055143 3 5 cbr 1000 ------- 2 1.0 5.1 34 34
r 1.055286 1 2 cbr 1000 ------- 2 1.0 5.1 47 47
+ 1.055286 2 3 cbr 1000 ------- 2 1.0 5.1 47 47
- 1.055286 2 3 cbr 1000 ------- 2 1.0 5.1 47 47
r 1.064143 2 3 cbr 1000 ------- 2 1.0 5.1 41 41
+ 1.064143 3 5 cbr 1000 ------- 2 1.0 5.1 41 41
- 1.064143 3 5 cbr 1000 ------- 2 1.0 5.1 41 41
+ 1.064286 1 2 cbr 1000 ------- 2 1.0 5.1 54 55
- 1.064286 1 2 cbr 1000 ------- 2 1.0 5.1 54 55
r 1.073 3 5 cbr 1000 ------- 2 1.0 5.1 35 35
r 1.073143 1 2 cbr 1000 ------- 2 1.0 5.1 48 48
+ 1.073143 2 3 cbr 1000 ------- 2 1.0 5.1 48 48
- 1.073143 2 3 cbr 1000 ------- 2 1.0 5.1 48 48
r 1.082 2 3 cbr 1000 ------- 2 1.0 5.1 42 42
+ 1.082 3 5 cbr 1000 ------- 2 1.0 5.1 42 42
- 1.082 3 5 cbr 1000 ------- 2 1.0 5.1 42 42
+ 1.082143 1 2 cbr 1000 ------- 2 1.0 5.1 55 56
- 1.082143 1 2 cbr 1000 ------- 2 1.0 5.1 55 56
r 1.090857 3 5 cbr 1000 ------- 2 1.0 5.1 36 36
r 1.091 1 2 cbr 1000 ------- 2 1.0 5.1 49 49
+ 1.091 2 3 cbr 1000 ------- 2 1.0 5.1 49 49
- 1.091 2 3 cbr 1000 ------- 2 1.0 5.1 49 49
r 1.099857 2 3 cbr 1000 ------- 2 1.0 5.1 43 43
+ 1.099857 3 5 cbr 1000 ------- 2 1.0 5.1 43 43
- 1.099857 3 5 cbr 1000 ------- 2 1.0 5.1 43 43
+ 1.1 1 2 cbr 1000 ------- 2 1.0 5.1 56 57
- 1.1 1 2 cbr 1000 ------- 2 1.0 5.1 56 57
r 1.10064 0 2 tcp 40 ------- 1 0.0 5.0 0 51
+ 1.10064 2 3 tcp 40 ------- 1 0.0 5.0 0 51
- 1.107 2 3 tcp 40 ------- 1 0.0 5.0 0 51
r 1.108714 3 5 cbr 1000 ------- 2 1.0 5.1 37 37
r 1.108857 1 2 cbr 1000 ------- 2 1.0 5.1 50 50
+ 1.108857 2 3 cbr 1000 ------- 2 1.0 5.1 50 50
- 1.108857 2 3 cbr 1000 ------- 2 1.0 5.1 50 50
r 1.117714 2 3 cbr 1000 ------- 2 1.0 5.1 44 44
+ 1.117714 3 5 cbr 1000 ------- 2 1.0 5.1 44 44
- 1.117714 3 5 cbr 1000 ------- 2 1.0 5.1 44 44
+ 1.117857 1 2 cbr 1000 ------- 2 1.0 5.1 57 58
- 1.117857 1 2 cbr 1000 ------- 2 1.0 5.1 57 58
r 1.126571 3 5 cbr 1000 ------- 2 1.0 5.1 38 38
r 1.126714 1 2 cbr 1000 ------- 2 1.0 5.1 51 52
+ 1.126714 2 3 cbr 1000 ------- 2 1.0 5.1 51 52
- 1.126714 2 3 cbr 1000 ------- 2 1.0 5.1 51 52
r 1.135571 2 3 cbr 1000 ------- 2 1.0 5.1 45 45
+ 1.135571 3 5 cbr 1000 ------- 2 1.0 5.1 45 45
- 1.135571 3 5 cbr 1000 ------- 2 1.0 5.1 45 45
+ 1.135714 1 2 cbr 1000 ------- 2 1.0 5.1 58 59
- 1.135714 1 2 cbr 1000 ------- 2 1.0 5.1 58 59
r 1.144429 3 5 cbr 1000 ------- 2 1.0 5.1 39 39
r 1.144571 1 2 cbr 1000 ------- 2 1.0 5.1 52 53
+ 1.144571 2 3 cbr 1000 ------- 2 1.0 5.1 52 53
- 1.144571 2 3 cbr 1000 ------- 2 1.0 5.1 52 53
r 1.153429 2 3 cbr 1000 ------- 2 1.0 5.1 46 46
+ 1.153429 3 5 cbr 1000 ------- 2 1.0 5.1 46 46
- 1.153429 3 5 cbr 1000 ------- 2 1.0 5.1 46 46
+ 1.153571 1 2 cbr 1000 ------- 2 1.0 5.1 59 60
- 1.153571 1 2 cbr 1000 ------- 2 1.0 5.1 59 60
r 1.162286 3 5 cbr 1000 ------- 2 1.0 5.1 40 40
r 1.162429 1 2 cbr 1000 ------- 2 1.0 5.1 53 54
+ 1.162429 2 3 cbr 1000 ------- 2 1.0 5.1 53 54
- 1.162429 2 3 cbr 1000 ------- 2 1.0 5.1 53 54
r 1.171286 2 3 cbr 1000 ------- 2 1.0 5.1 47 47
+ 1.171286 3 5 cbr 1000 ------- 2 1.0 5.1 47 47
- 1.171286 3 5 cbr 1000 ------- 2 1.0 5.1 47 47
+ 1.171429 1 2 cbr 1000 ------- 2 1.0 5.1 60 61
- 1.171429 1 2 cbr 1000 ------- 2 1.0 5.1 60 61
r 1.180143 3 5 cbr 1000 ------- 2 1.0 5.1 41 41
r 1.180286 1 2 cbr 1000 ------- 2 1.0 5.1 54 55
+ 1.180286 2 3 cbr 1000 ------- 2 1.0 5.1 54 55
- 1.180286 2 3 cbr 1000 ------- 2 1.0 5.1 54 55
r 1.189143 2 3 cbr 1000 ------- 2 1.0 5.1 48 48
+ 1.189143 3 5 cbr 1000 ------- 2 1.0 5.1 48 48
- 1.189143 3 5 cbr 1000 ------- 2 1.0 5.1 48 48
+ 1.189286 1 2 cbr 1000 ------- 2 1.0 5.1 61 62
- 1.189286 1 2 cbr 1000 ------- 2 1.0 5.1 61 62
r 1.198 3 5 cbr 1000 ------- 2 1.0 5.1 42 42
r 1.198143 1 2 cbr 1000 ------- 2 1.0 5.1 55 56
+ 1.198143 2 3 cbr 1000 ------- 2 1.0 5.1 55 56
- 1.198143 2 3 cbr 1000 ------- 2 1.0 5.1 55 56
r 1.207 2 3 cbr 1000 ------- 2 1.0 5.1 49 49
+ 1.207 3 5 cbr 1000 ------- 2 1.0 5.1 49 49
- 1.207 3 5 cbr 1000 ------- 2 1.0 5.1 49 49
+ 1.207143 1 2 cbr 1000 ------- 2 1.0 5.1 62 63
- 1.207143 1 2 cbr 1000 ------- 2 1.0 5.1 62 63
r 1.20764 2 3 tcp 40 ------- 1 0.0 5.0 0 51
+ 1.20764 3 5 tcp 40 ------- 1 0.0 5.0 0 51
r 1.215857 3 5 cbr 1000 ------- 2 1.0 5.1 43 43
r 1.216 1 2 cbr 1000 ------- 2 1.0 5.1 56 57
+ 1.216 2 3 cbr 1000 ------- 2 1.0 5.1 56 57
- 1.216 2 3 cbr 1000 ------- 2 1.0 5.1 56 57
- 1.223 3 5 tcp 40 ------- 1 0.0 5.0 0 51
r 1.224857 2 3 cbr 1000 ------- 2 1.0 5.1 50 50
+ 1.224857 3 5 cbr 1000 ------- 2 1.0 5.1 50 50
- 1.224857 3 5 cbr 1000 ------- 2 1.0 5.1 50 50
+ 1.225 1 2 cbr 1000 ------- 2 1.0 5.1 63 64
- 1.225 1 2 cbr 1000 ------- 2 1.0 5.1 63 64
r 1.233714 3 5 cbr 1000 ------- 2 1.0 5.1 44 44
r 1.233857 1 2 cbr 1000 ------- 2 1.0 5.1 57 58
+ 1.233857 2 3 cbr 1000 ------- 2 1.0 5.1 57 58
- 1.233857 2 3 cbr 1000 ------- 2 1.0 5.1 57 58
r 1.242714 2 3 cbr 1000 ------- 2 1.0 5.1 51 52
+ 1.242714 3 5 cbr 1000 ------- 2 1.0 5.1 51 52
- 1.242714 3 5 cbr 1000 ------- 2 1.0 5.1 51 52
+ 1.242857 1 2 cbr 1000 ------- 2 1.0 5.1 64 65
- 1.242857 1 2 cbr 1000 ------- 2 1.0 5.1 64 65
r 1.251571 3 5 cbr 1000 ------- 2 1.0 5.1 45 45
r 1.251714 1 2 cbr 1000 ------- 2 1.0 5.1 58 59
+ 1.251714 2 3 cbr 1000 ------- 2 1.0 5.1 58 59
- 1.251714 2 3 cbr 1000 ------- 2 1.0 5.1 58 59
r 1.260571 2 3 cbr 1000 ------- 2 1.0 5.1 52 53
+ 1.260571 3 5 cbr 1000 ------- 2 1.0 5.1 52 53
- 1.260571 3 5 cbr 1000 ------- 2 1.0 5.1 52 53
+ 1.260714 1 2 cbr 1000 ------- 2 1.0 5.1 65 66
- 1.260714 1 2 cbr 1000 ------- 2 1.0 5.1 65 66
r 1.269429 3 5 cbr 1000 ------- 2 1.0 5.1 46 46
r 1.269571 1 2 cbr 1000 ------- 2 1.0 5.1 59 60
+ 1.269571 2 3 cbr 1000 ------- 2 1.0 5.1 59 60
- 1.269571 2 3 cbr 1000 ------- 2 1.0 5.1 59 60
r 1.278429 2 3 cbr 1000 ------- 2 1.0 5.1 53 54
+ 1.278429 3 5 cbr 1000 ------- 2 1.0 5.1 53 54
- 1.278429 3 5 cbr 1000 ------- 2 1.0 5.1 53 54
+ 1.278571 1 2 cbr 1000 ------- 2 1.0 5.1 66 67
- 1.278571 1 2 cbr 1000 ------- 2 1.0 5.1 66 67
r 1.287286 3 5 cbr 1000 ------- 2 1.0 5.1 47 47
r 1.287429 1 2 cbr 1000 ------- 2 1.0 5.1 60 61
+ 1.287429 2 3 cbr 1000 ------- 2 1.0 5.1 60 61
- 1.287429 2 3 cbr 1000 ------- 2 1.0 5.1 60 61
r 1.296286 2 3 cbr 1000 ------- 2 1.0 5.1 54 55
+ 1.296286 3 5 cbr 1000 ------- 2 1.0 5.1 54 55
- 1.296286 3 5 cbr 1000 ------- 2 1.0 5.1 54 55
+ 1.296429 1 2 cbr 1000 ------- 2 1.0 5.1 67 68
- 1.296429 1 2 cbr 1000 ------- 2 1.0 5.1 67 68
r 1.305143 3 5 cbr 1000 ------- 2 1.0 5.1 48 48
r 1.305286 1 2 cbr 1000 ------- 2 1.0 5.1 61 62
+ 1.305286 2 3 cbr 1000 ------- 2 1.0 5.1 61 62
- 1.305286 2 3 cbr 1000 ------- 2 1.0 5.1 61 62
r 1.314143 2 3 cbr 1000 ------- 2 1.0 5.1 55 56
+ 1.314143 3 5 cbr 1000 ------- 2 1.0 5.1 55 56
- 1.314143 3 5 cbr 1000 ------- 2 1.0 5.1 55 56
+ 1.314286 1 2 cbr 1000 ------- 2 1.0 5.1 68 69
- 1.314286 1 2 cbr 1000 ------- 2 1.0 5.1 68 69
r 1.323 3 5 cbr 1000 ------- 2 1.0 5.1 49 49
r 1.323143 1 2 cbr 1000 ------- 2 1.0 5.1 62 63
+ 1.323143 2 3 cbr 1000 ------- 2 1.0 5.1 62 63
- 1.323143 2 3 cbr 1000 ------- 2 1.0 5.1 62 63
r 1.32364 3 5 tcp 40 ------- 1 0.0 5.0 0 51
+ 1.32364 5 3 ack 40 ------- 1 5.0 0.0 0 70
- 1.32364 5 3 ack 40 ------- 1 5.0 0.0 0 70
r 1.332 2 3 cbr 1000 ------- 2 1.0 5.1 56 57
+ 1.332 3 5 cbr 1000 ------- 2 1.0 5.1 56 57
- 1.332 3 5 cbr 1000 ------- 2 1.0 5.1 56 57
+ 1.332143 1 2 cbr 1000 ------- 2 1.0 5.1 69 71
- 1.332143 1 2 cbr 1000 ------- 2 1.0 5.1 69 71
r 1.340857 3 5 cbr 1000 ------- 2 1.0 5.1 50 50
r 1.341 1 2 cbr 1000 ------- 2 1.0 5.1 63 64
+ 1.341 2 3 cbr 1000 ------- 2 1.0 5.1 63 64
- 1.341 2 3 cbr 1000 ------- 2 1.0 5.1 63 64
r 1.349857 2 3 cbr 1000 ------- 2 1.0 5.1 57 58
+ 1.349857 3 5 cbr 1000 ------- 2 1.0 5.1 57 58
- 1.349857 3 5 cbr 1000 ------- 2 1.0 5.1 57 58
+ 1.35 1 2 cbr 1000 ------- 2 1.0 5.1 70 72
- 1.35 1 2 cbr 1000 ------- 2 1.0 5.1 70 72
r 1.358714 3 5 cbr 1000 ------- 2 1.0 5.1 51 52
r 1.358857 1 2 cbr 1000 ------- 2 1.0 5.1 64 65
+ 1.358857 2 3 cbr 1000 ------- 2 1.0 5.1 64 65
- 1.358857 2 3 cbr 1000 ------- 2 1.0 5.1 64 65
r 1.367714 2 3 cbr 1000 ------- 2 1.0 5.1 58 59
+ 1.367714 3 5 cbr 1000 ------- 2 1.0 5.1 58 59
- 1.367714 3 5 cbr 1000 ------- 2 1.0 5.1 58 59
+ 1.367857 1 2 cbr 1000 ------- 2 1.0 5.1 71 73
- 1.367857 1 2 cbr 1000 ------- 2 1.0 5.1 71 73
r 1.376571 3 5 cbr 1000 ------- 2 1.0 5.1 52 53
r 1.376714 1 2 cbr 1000 ------- 2 1.0 5.1 65 66
+ 1.376714 2 3 cbr 1000 ------- 2 1.0 5.1 65 66
- 1.376714 2 3 cbr 1000 ------- 2 1.0 5.1 65 66
r 1.385571 2 3 cbr 1000 ------- 2 1.0 5.1 59 60
+ 1.385571 3 5 cbr 1000 ------- 2 1.0 5.1 59 60
- 1.385571 3 5 cbr 1000 ------- 2 1.0 5.1 59 60
+ 1.385714 1 2 cbr 1000 ------- 2 1.0 5.1 72 74
- 1.385714 1 2 cbr 1000 ------- 2 1.0 5.1 72 74
r 1.394429 3 5 cbr 1000 ------- 2 1.0 5.1 53 54
r 1.394571 1 2 cbr 1000 ------- 2 1.0 5.1 66 67
+ 1.394571 2 3 cbr 1000 ------- 2 1.0 5.1 66 67
- 1.394571 2 3 cbr 1000 ------- 2 1.0 5.1 66 67
r 1.403429 2 3 cbr 1000 ------- 2 1.0 5.1 60 61
+ 1.403429 3 5 cbr 1000 ------- 2 1.0 5.1 60 61
- 1.403429 3 5 cbr 1000 ------- 2 1.0 5.1 60 61
+ 1.403571 1 2 cbr 1000 ------- 2 1.0 5.1 73 75
- 1.403571 1 2 cbr 1000 ------- 2 1.0 5.1 73 75
r 1.412286 3 5 cbr 1000 ------- 2 1.0 5.1 54 55
r 1.412429 1 2 cbr 1000 ------- 2 1.0 5.1 67 68
+ 1.412429 2 3 cbr 1000 ------- 2 1.0 5.1 67 68
- 1.412429 2 3 cbr 1000 ------- 2 1.0 5.1 67 68
r 1.421286 2 3 cbr 1000 ------- 2 1.0 5.1 61 62
+ 1.421286 3 5 cbr 1000 ------- 2 1.0 5.1 61 62
- 1.421286 3 5 cbr 1000 ------- 2 1.0 5.1 61 62
+ 1.421429 1 2 cbr 1000 ------- 2 1.0 5.1 74 76
- 1.421429 1 2 cbr 1000 ------- 2 1.0 5.1 74 76
r 1.42428 5 3 ack 40 ------- 1 5.0 0.0 0 70
+ 1.42428 3 2 ack 40 ------- 1 5.0 0.0 0 70
- 1.42428 3 2 ack 40 ------- 1 5.0 0.0 0 70
r 1.430143 3 5 cbr 1000 ------- 2 1.0 5.1 55 56
r 1.430286 1 2 cbr 1000 ------- 2 1.0 5.1 68 69
+ 1.430286 2 3 cbr 1000 ------- 2 1.0 5.1 68 69
- 1.430286 2 3 cbr 1000 ------- 2 1.0 5.1 68 69
r 1.439143 2 3 cbr 1000 ------- 2 1.0 5.1 62 63
+ 1.439143 3 5 cbr 1000 ------- 2 1.0 5.1 62 63
- 1.439143 3 5 cbr 1000 ------- 2 1.0 5.1 62 63
+ 1.439286 1 2 cbr 1000 ------- 2 1.0 5.1 75 77
- 1.439286 1 2 cbr 1000 ------- 2 1.0 5.1 75 77
r 1.448 3 5 cbr 1000 ------- 2 1.0 5.1 56 57
r 1.448143 1 2 cbr 1000 ------- 2 1.0 5.1 69 71
+ 1.448143 2 3 cbr 1000 ------- 2 1.0 5.1 69 71
- 1.448143 2 3 cbr 1000 ------- 2 1.0 5.1 69 71
r 1.457 2 3 cbr 1000 ------- 2 1.0 5.1 63 64
+ 1.457 3 5 cbr 1000 ------- 2 1.0 5.1 63 64
- 1.457 3 5 cbr 1000 ------- 2 1.0 5.1 63 64
+ 1.457143 1 2 cbr 1000 ------- 2 1.0 5.1 76 78
- 1.457143 1 2 cbr 1000 ------- 2 1.0 5.1 76 78
r 1.465857 3 5 cbr 1000 ------- 2 1.0 5.1 57 58
r 1.466 1 2 cbr 1000 ------- 2 1.0 5.1 70 72
+ 1.466 2 3 cbr 1000 ------- 2 1.0 5.1 70 72
- 1.466 2 3 cbr 1000 ------- 2 1.0 5.1 70 72
r 1.474857 2 3 cbr 1000 ------- 2 1.0 5.1 64 65
+ 1.474857 3 5 cbr 1000 ------- 2 1.0 5.1 64 65
- 1.474857 3 5 cbr 1000 ------- 2 1.0 5.1 64 65
+ 1.475 1 2 cbr 1000 ------- 2 1.0 5.1 77 79
- 1.475 1 2 cbr 1000 ------- 2 1.0 5.1 77 79