V -t * -v 1.0a5 -a 0
A -t * -n 1 -p 0 -o 0xffffffff -c 31 -a 1
A -t * -h 1 -m 2147483647 -s 0
n -t * -a 167781121 -s 35 -S UP -v circle -c black -i black
n -t * -a 167781377 -s 36 -S UP -v circle -c black -i black
n -t * -a 167781633 -s 37 -S UP -v circle -c black -i black
n -t * -a 167781889 -s 38 -S UP -v circle -c black -i black
n -t * -a 167782145 -s 39 -S UP -v circle -c black -i black
n -t * -a 167782401 -s 40 -S UP -v circle -c black -i black
n -t * -a 167782657 -s 41 -S UP -v circle -c black -i black
n -t * -a 167782913 -s 42 -S UP -v circle -c black -i black
n -t * -a 167783169 -s 43 -S UP -v circle -c black -i black
n -t * -a 167783425 -s 44 -S UP -v circle -c black -i black
n -t * -a 167783681 -s 45 -S UP -v circle -c black -i black
n -t * -a 167783937 -s 46 -S UP -v circle -c black -i black
n -t * -a 167784193 -s 47 -S UP -v circle -c black -i black
n -t * -a 167784449 -s 48 -S UP -v circle -c black -i black
n -t * -a 167784961 -s 50 -S UP -v circle -c black -i black
n -t * -a 167784705 -s 49 -S UP -v circle -c black -i black
n -t * -a 167785217 -s 51 -S UP -v circle -c black -i black
n -t * -a 167785473 -s 52 -S UP -v circle -c black -i black
n -t * -a 167785729 -s 53 -S UP -v circle -c black -i black
n -t * -a 167785985 -s 54 -S UP -v circle -c black -i black
n -t * -a 167786241 -s 55 -S UP -v circle -c black -i black
n -t * -a 167786497 -s 56 -S UP -v circle -c black -i black
n -t * -a 167786753 -s 57 -S UP -v circle -c black -i black
n -t * -a 167787009 -s 58 -S UP -v circle -c black -i black
n -t * -a 167787521 -s 60 -S UP -v circle -c black -i black
n -t * -a 167787265 -s 59 -S UP -v circle -c black -i black
n -t * -a 167787777 -s 61 -S UP -v circle -c black -i black
n -t * -a 167788033 -s 62 -S UP -v circle -c black -i black
n -t * -a 167788289 -s 63 -S UP -v circle -c black -i black
n -t * -a 167774721 -s 10 -S UP -v circle -c black -i black
n -t * -a 167774977 -s 11 -S UP -v circle -c black -i black
n -t * -a 167775233 -s 12 -S UP -v circle -c black -i black
n -t * -a 167775489 -s 13 -S UP -v circle -c black -i black
n -t * -a 167775745 -s 14 -S UP -v circle -c black -i black
n -t * -a 167776001 -s 15 -S UP -v circle -c black -i black
n -t * -a 167776257 -s 16 -S UP -v circle -c black -i black
n -t * -a 167772161 -s 0 -S UP -v circle -c black -i black
n -t * -a 167776513 -s 17 -S UP -v circle -c black -i black
n -t * -a 167772417 -s 1 -S UP -v circle -c black -i black
n -t * -a 167776769 -s 18 -S UP -v circle -c black -i black
n -t * -a 167772673 -s 2 -S UP -v circle -c black -i black
n -t * -a 167777025 -s 19 -S UP -v circle -c black -i black
n -t * -a 167777281 -s 20 -S UP -v circle -c black -i black
n -t * -a 167772929 -s 3 -S UP -v circle -c black -i black
n -t * -a 167777537 -s 21 -S UP -v circle -c black -i black
n -t * -a 167773185 -s 4 -S UP -v circle -c black -i black
n -t * -a 167777793 -s 22 -S UP -v circle -c black -i black
n -t * -a 167773441 -s 5 -S UP -v circle -c black -i black
n -t * -a 167778049 -s 23 -S UP -v circle -c black -i black
n -t * -a 167773697 -s 6 -S UP -v circle -c black -i black
n -t * -a 167778305 -s 24 -S UP -v circle -c black -i black
n -t * -a 167773953 -s 7 -S UP -v circle -c black -i black
n -t * -a 167778561 -s 25 -S UP -v circle -c black -i black
n -t * -a 167774209 -s 8 -S UP -v circle -c black -i black
n -t * -a 167778817 -s 26 -S UP -v circle -c black -i black
n -t * -a 167774465 -s 9 -S UP -v circle -c black -i black
n -t * -a 167779073 -s 27 -S UP -v circle -c black -i black
n -t * -a 167779329 -s 28 -S UP -v circle -c black -i black
n -t * -a 167779585 -s 29 -S UP -v circle -c black -i black
n -t * -a 167779841 -s 30 -S UP -v circle -c black -i black
n -t * -a 167780097 -s 31 -S UP -v circle -c black -i black
n -t * -a 167780353 -s 32 -S UP -v circle -c black -i black
n -t * -a 167780609 -s 33 -S UP -v circle -c black -i black
n -t * -a 167780865 -s 34 -S UP -v circle -c black -i black
l -t * -s 0 -d 32 -S UP -r 1000000 -D 0.001 -c black
l -t * -s 1 -d 33 -S UP -r 1000000 -D 0.001 -c black
l -t * -s 2 -d 34 -S UP -r 1000000 -D 0.001 -c black
l -t * -s 3 -d 35 -S UP -r 1000000 -D 0.001 -c black
l -t * -s 4 -d 36 -S UP -r 1000000 -D 0.001 -c black
l -t * -s 5 -d 37 -S UP -r 1000000 -D 0.001 -c black
l -t * -s 6 -d 38 -S UP -r 1000000 -D 0.001 -c black
l -t * -s 7 -d 39 -S UP -r 1000000 -D 0.001 -c black
l -t * -s 8 -d 40 -S UP -r 1000000 -D 0.001 -c black
l -t * -s 9 -d 41 -S UP -r 1000000 -D 0.001 -c black
l -t * -s 10 -d 42 -S UP -r 1000000 -D 0.001 -c black
l -t * -s 11 -d 43 -S UP -r 1000000 -D 0.001 -c black
l -t * -s 12 -d 44 -S UP -r 1000000 -D 0.001 -c black
l -t * -s 13 -d 45 -S UP -r 1000000 -D 0.001 -c black
l -t * -s 14 -d 46 -S UP -r 1000000 -D 0.001 -c black
l -t * -s 15 -d 47 -S UP -r 1000000 -D 0.001 -c black
l -t * -s 16 -d 48 -S UP -r 1000000 -D 0.001 -c black
l -t * -s 17 -d 49 -S UP -r 1000000 -D 0.001 -c black
l -t * -s 18 -d 50 -S UP -r 1000000 -D 0.001 -c black
l -t * -s 19 -d 51 -S UP -r 1000000 -D 0.001 -c black
l -t * -s 20 -d 52 -S UP -r 1000000 -D 0.001 -c black
l -t * -s 21 -d 53 -S UP -r 1000000 -D 0.001 -c black
l -t * -s 22 -d 54 -S UP -r 1000000 -D 0.001 -c black
l -t * -s 23 -d 55 -S UP -r 1000000 -D 0.001 -c black
l -t * -s 24 -d 56 -S UP -r 1000000 -D 0.001 -c black
l -t * -s 25 -d 57 -S UP -r 1000000 -D 0.001 -c black
l -t * -s 26 -d 58 -S UP -r 1000000 -D 0.001 -c black
l -t * -s 27 -d 59 -S UP -r 1000000 -D 0.001 -c black
l -t * -s 28 -d 60 -S UP -r 1000000 -D 0.001 -c black
l -t * -s 29 -d 61 -S UP -r 1000000 -D 0.001 -c black
l -t * -s 30 -d 62 -S UP -r 1000000 -D 0.001 -c black
l -t * -s 31 -d 63 -S UP -r 1000000 -D 0.001 -c black
l -t * -s 0 -d 1 -S UP -r 1000000 -D 0.001 -c black
l -t * -s 0 -d 4 -S UP -r 1000000 -D 0.001 -c black
l -t * -s 1 -d 2 -S UP -r 1000000 -D 0.001 -c black
l -t * -s 2 -d 4 -S UP -r 1000000 -D 0.001 -c black
l -t * -s 2 -d 3 -S UP -r 1000000 -D 0.001 -c black
l -t * -s 3 -d 4 -S UP -r 1000000 -D 0.001 -c black
l -t * -s 1 -d 5 -S UP -r 1000000 -D 0.001 -c black
l -t * -s 5 -d 6 -S UP -r 1000000 -D 0.001 -c black
l -t * -s 5 -d 7 -S UP -r 1000000 -D 0.001 -c black
l -t * -s 5 -d 8 -S UP -r 1000000 -D 0.001 -c black
l -t * -s 6 -d 9 -S UP -r 1000000 -D 0.001 -c black
l -t * -s 6 -d 10 -S UP -r 1000000 -D 0.001 -c black
l -t * -s 6 -d 11 -S UP -r 1000000 -D 0.001 -c black
l -t * -s 8 -d 12 -S UP -r 1000000 -D 0.001 -c black
l -t * -s 8 -d 13 -S UP -r 1000000 -D 0.001 -c black
l -t * -s 8 -d 14 -S UP -r 1000000 -D 0.001 -c black
l -t * -s 14 -d 15 -S UP -r 1000000 -D 0.001 -c black
l -t * -s 14 -d 16 -S UP -r 1000000 -D 0.001 -c black
l -t * -s 14 -d 17 -S UP -r 1000000 -D 0.001 -c black
l -t * -s 3 -d 18 -S UP -r 1000000 -D 0.001 -c black
l -t * -s 3 -d 19 -S UP -r 1000000 -D 0.001 -c black
l -t * -s 19 -d 20 -S UP -r 1000000 -D 0.001 -c black
l -t * -s 19 -d 21 -S UP -r 1000000 -D 0.001 -c black
l -t * -s 19 -d 22 -S UP -r 1000000 -D 0.001 -c black
l -t * -s 4 -d 23 -S UP -r 1000000 -D 0.001 -c black
l -t * -s 4 -d 24 -S UP -r 1000000 -D 0.001 -c black
l -t * -s 23 -d 25 -S UP -r 1000000 -D 0.001 -c black
l -t * -s 23 -d 26 -S UP -r 1000000 -D 0.001 -c black
l -t * -s 24 -d 27 -S UP -r 1000000 -D 0.001 -c black
l -t * -s 24 -d 28 -S UP -r 1000000 -D 0.001 -c black
l -t * -s 24 -d 29 -S UP -r 1000000 -D 0.001 -c black
l -t * -s 27 -d 30 -S UP -r 1000000 -D 0.001 -c black
l -t * -s 27 -d 31 -S UP -r 1000000 -D 0.001 -c black
l -t * -s 15 -d 18 -S UP -r 1000000 -D 0.001 -c black
l -t * -s 9 -d 29 -S UP -r 1000000 -D 0.001 -c black
+ -t 0.01 -s 0 -d 1 -p tcp -e 40 -c 0 -i 0 -a 0 -x {167772161.180 167772417.179 0 ------- null}
- -t 0.01 -s 0 -d 1 -p tcp -e 40 -c 0 -i 0 -a 0 -x {167772161.180 167772417.179 0 ------- null}
h -t 0.01 -s 0 -d 1 -p tcp -e 40 -c 0 -i 0 -a 0 -x {167772161.180 167772417.179 -1 ------- null}
+ -t 0.01 -s 0 -d 4 -p tcp -e 40 -c 0 -i 1 -a 0 -x {167772161.181 167773185.179 0 ------- null}
- -t 0.01 -s 0 -d 4 -p tcp -e 40 -c 0 -i 1 -a 0 -x {167772161.181 167773185.179 0 ------- null}
h -t 0.01 -s 0 -d 4 -p tcp -e 40 -c 0 -i 1 -a 0 -x {167772161.181 167773185.179 -1 ------- null}
+ -t 0.01 -s 1 -d 0 -p tcp -e 40 -c 0 -i 2 -a 0 -x {167772417.180 167772161.179 0 ------- null}
- -t 0.01 -s 1 -d 0 -p tcp -e 40 -c 0 -i 2 -a 0 -x {167772417.180 167772161.179 0 ------- null}
h -t 0.01 -s 1 -d 0 -p tcp -e 40 -c 0 -i 2 -a 0 -x {167772417.180 167772161.179 -1 ------- null}
+ -t 0.01 -s 1 -d 2 -p tcp -e 40 -c 0 -i 3 -a 0 -x {167772417.181 167772673.179 0 ------- null}
- -t 0.01 -s 1 -d 2 -p tcp -e 40 -c 0 -i 3 -a 0 -x {167772417.181 167772673.179 0 ------- null}
h -t 0.01 -s 1 -d 2 -p tcp -e 40 -c 0 -i 3 -a 0 -x {167772417.181 167772673.179 -1 ------- null}
+ -t 0.01 -s 1 -d 5 -p tcp -e 40 -c 0 -i 4 -a 0 -x {167772417.182 167773441.179 0 ------- null}
- -t 0.01 -s 1 -d 5 -p tcp -e 40 -c 0 -i 4 -a 0 -x {167772417.182 167773441.179 0 ------- null}
h -t 0.01 -s 1 -d 5 -p tcp -e 40 -c 0 -i 4 -a 0 -x {167772417.182 167773441.179 -1 ------- null}
+ -t 0.01 -s 2 -d 1 -p tcp -e 40 -c 0 -i 5 -a 0 -x {167772673.180 167772417.179 0 ------- null}
- -t 0.01 -s 2 -d 1 -p tcp -e 40 -c 0 -i 5 -a 0 -x {167772673.180 167772417.179 0 ------- null}
h -t 0.01 -s 2 -d 1 -p tcp -e 40 -c 0 -i 5 -a 0 -x {167772673.180 167772417.179 -1 ------- null}
+ -t 0.01 -s 2 -d 4 -p tcp -e 40 -c 0 -i 6 -a 0 -x {167772673.181 167773185.179 0 ------- null}
- -t 0.01 -s 2 -d 4 -p tcp -e 40 -c 0 -i 6 -a 0 -x {167772673.181 167773185.179 0 ------- null}
h -t 0.01 -s 2 -d 4 -p tcp -e 40 -c 0 -i 6 -a 0 -x {167772673.181 167773185.179 -1 ------- null}
+ -t 0.01 -s 2 -d 3 -p tcp -e 40 -c 0 -i 7 -a 0 -x {167772673.182 167772929.179 0 ------- null}
- -t 0.01 -s 2 -d 3 -p tcp -e 40 -c 0 -i 7 -a 0 -x {167772673.182 167772929.179 0 ------- null}
h -t 0.01 -s 2 -d 3 -p tcp -e 40 -c 0 -i 7 -a 0 -x {167772673.182 167772929.179 -1 ------- null}
+ -t 0.01 -s 3 -d 2 -p tcp -e 40 -c 0 -i 8 -a 0 -x {167772929.180 167772673.179 0 ------- null}
- -t 0.01 -s 3 -d 2 -p tcp -e 40 -c 0 -i 8 -a 0 -x {167772929.180 167772673.179 0 ------- null}
h -t 0.01 -s 3 -d 2 -p tcp -e 40 -c 0 -i 8 -a 0 -x {167772929.180 167772673.179 -1 ------- null}
+ -t 0.01 -s 3 -d 4 -p tcp -e 40 -c 0 -i 9 -a 0 -x {167772929.181 167773185.179 0 ------- null}
- -t 0.01 -s 3 -d 4 -p tcp -e 40 -c 0 -i 9 -a 0 -x {167772929.181 167773185.179 0 ------- null}
h -t 0.01 -s 3 -d 4 -p tcp -e 40 -c 0 -i 9 -a 0 -x {167772929.181 167773185.179 -1 ------- null}
+ -t 0.01 -s 3 -d 18 -p tcp -e 40 -c 0 -i 10 -a 0 -x {167772929.182 167776769.179 0 ------- null}
- -t 0.01 -s 3 -d 18 -p tcp -e 40 -c 0 -i 10 -a 0 -x {167772929.182 167776769.179 0 ------- null}
h -t 0.01 -s 3 -d 18 -p tcp -e 40 -c 0 -i 10 -a 0 -x {167772929.182 167776769.179 -1 ------- null}
+ -t 0.01 -s 3 -d 19 -p tcp -e 40 -c 0 -i 11 -a 0 -x {167772929.183 167777025.179 0 ------- null}
- -t 0.01 -s 3 -d 19 -p tcp -e 40 -c 0 -i 11 -a 0 -x {167772929.183 167777025.179 0 ------- null}
h -t 0.01 -s 3 -d 19 -p tcp -e 40 -c 0 -i 11 -a 0 -x {167772929.183 167777025.179 -1 ------- null}
+ -t 0.01 -s 4 -d 0 -p tcp -e 40 -c 0 -i 12 -a 0 -x {167773185.180 167772161.179 0 ------- null}
- -t 0.01 -s 4 -d 0 -p tcp -e 40 -c 0 -i 12 -a 0 -x {167773185.180 167772161.179 0 ------- null}
h -t 0.01 -s 4 -d 0 -p tcp -e 40 -c 0 -i 12 -a 0 -x {167773185.180 167772161.179 -1 ------- null}
+ -t 0.01 -s 4 -d 2 -p tcp -e 40 -c 0 -i 13 -a 0 -x {167773185.181 167772673.179 0 ------- null}
- -t 0.01 -s 4 -d 2 -p tcp -e 40 -c 0 -i 13 -a 0 -x {167773185.181 167772673.179 0 ------- null}
h -t 0.01 -s 4 -d 2 -p tcp -e 40 -c 0 -i 13 -a 0 -x {167773185.181 167772673.179 -1 ------- null}
+ -t 0.01 -s 4 -d 3 -p tcp -e 40 -c 0 -i 14 -a 0 -x {167773185.182 167772929.179 0 ------- null}
- -t 0.01 -s 4 -d 3 -p tcp -e 40 -c 0 -i 14 -a 0 -x {167773185.182 167772929.179 0 ------- null}
h -t 0.01 -s 4 -d 3 -p tcp -e 40 -c 0 -i 14 -a 0 -x {167773185.182 167772929.179 -1 ------- null}
+ -t 0.01 -s 4 -d 23 -p tcp -e 40 -c 0 -i 15 -a 0 -x {167773185.183 167778049.179 0 ------- null}
- -t 0.01 -s 4 -d 23 -p tcp -e 40 -c 0 -i 15 -a 0 -x {167773185.183 167778049.179 0 ------- null}
h -t 0.01 -s 4 -d 23 -p tcp -e 40 -c 0 -i 15 -a 0 -x {167773185.183 167778049.179 -1 ------- null}
+ -t 0.01 -s 4 -d 24 -p tcp -e 40 -c 0 -i 16 -a 0 -x {167773185.184 167778305.179 0 ------- null}
- -t 0.01 -s 4 -d 24 -p tcp -e 40 -c 0 -i 16 -a 0 -x {167773185.184 167778305.179 0 ------- null}
h -t 0.01 -s 4 -d 24 -p tcp -e 40 -c 0 -i 16 -a 0 -x {167773185.184 167778305.179 -1 ------- null}
+ -t 0.01 -s 5 -d 1 -p tcp -e 40 -c 0 -i 17 -a 0 -x {167773441.180 167772417.179 0 ------- null}
- -t 0.01 -s 5 -d 1 -p tcp -e 40 -c 0 -i 17 -a 0 -x {167773441.180 167772417.179 0 ------- null}
h -t 0.01 -s 5 -d 1 -p tcp -e 40 -c 0 -i 17 -a 0 -x {167773441.180 167772417.179 -1 ------- null}
+ -t 0.01 -s 5 -d 6 -p tcp -e 40 -c 0 -i 18 -a 0 -x {167773441.181 167773697.179 0 ------- null}
- -t 0.01 -s 5 -d 6 -p tcp -e 40 -c 0 -i 18 -a 0 -x {167773441.181 167773697.179 0 ------- null}
h -t 0.01 -s 5 -d 6 -p tcp -e 40 -c 0 -i 18 -a 0 -x {167773441.181 167773697.179 -1 ------- null}
+ -t 0.01 -s 5 -d 7 -p tcp -e 40 -c 0 -i 19 -a 0 -x {167773441.182 167773953.179 0 ------- null}
- -t 0.01 -s 5 -d 7 -p tcp -e 40 -c 0 -i 19 -a 0 -x {167773441.182 167773953.179 0 ------- null}
h -t 0.01 -s 5 -d 7 -p tcp -e 40 -c 0 -i 19 -a 0 -x {167773441.182 167773953.179 -1 ------- null}
+ -t 0.01 -s 5 -d 8 -p tcp -e 40 -c 0 -i 20 -a 0 -x {167773441.183 167774209.179 0 ------- null}
- -t 0.01 -s 5 -d 8 -p tcp -e 40 -c 0 -i 20 -a 0 -x {167773441.183 167774209.179 0 ------- null}
h -t 0.01 -s 5 -d 8 -p tcp -e 40 -c 0 -i 20 -a 0 -x {167773441.183 167774209.179 -1 ------- null}
+ -t 0.01 -s 6 -d 5 -p tcp -e 40 -c 0 -i 21 -a 0 -x {167773697.180 167773441.179 0 ------- null}
- -t 0.01 -s 6 -d 5 -p tcp -e 40 -c 0 -i 21 -a 0 -x {167773697.180 167773441.179 0 ------- null}
h -t 0.01 -s 6 -d 5 -p tcp -e 40 -c 0 -i 21 -a 0 -x {167773697.180 167773441.179 -1 ------- null}
+ -t 0.01 -s 6 -d 9 -p tcp -e 40 -c 0 -i 22 -a 0 -x {167773697.181 167774465.179 0 ------- null}
- -t 0.01 -s 6 -d 9 -p tcp -e 40 -c 0 -i 22 -a 0 -x {167773697.181 167774465.179 0 ------- null}
h -t 0.01 -s 6 -d 9 -p tcp -e 40 -c 0 -i 22 -a 0 -x {167773697.181 167774465.179 -1 ------- null}
+ -t 0.01 -s 6 -d 10 -p tcp -e 40 -c 0 -i 23 -a 0 -x {167773697.182 167774721.179 0 ------- null}
- -t 0.01 -s 6 -d 10 -p tcp -e 40 -c 0 -i 23 -a 0 -x {167773697.182 167774721.179 0 ------- null}
h -t 0.01 -s 6 -d 10 -p tcp -e 40 -c 0 -i 23 -a 0 -x {167773697.182 167774721.179 -1 ------- null}
+ -t 0.01 -s 6 -d 11 -p tcp -e 40 -c 0 -i 24 -a 0 -x {167773697.183 167774977.179 0 ------- null}
- -t 0.01 -s 6 -d 11 -p tcp -e 40 -c 0 -i 24 -a 0 -x {167773697.183 167774977.179 0 ------- null}
h -t 0.01 -s 6 -d 11 -p tcp -e 40 -c 0 -i 24 -a 0 -x {167773697.183 167774977.179 -1 ------- null}
+ -t 0.01 -s 7 -d 5 -p tcp -e 40 -c 0 -i 25 -a 0 -x {167773953.180 167773441.179 0 ------- null}
- -t 0.01 -s 7 -d 5 -p tcp -e 40 -c 0 -i 25 -a 0 -x {167773953.180 167773441.179 0 ------- null}
h -t 0.01 -s 7 -d 5 -p tcp -e 40 -c 0 -i 25 -a 0 -x {167773953.180 167773441.179 -1 ------- null}
+ -t 0.01 -s 8 -d 5 -p tcp -e 40 -c 0 -i 26 -a 0 -x {167774209.180 167773441.179 0 ------- null}
- -t 0.01 -s 8 -d 5 -p tcp -e 40 -c 0 -i 26 -a 0 -x {167774209.180 167773441.179 0 ------- null}
h -t 0.01 -s 8 -d 5 -p tcp -e 40 -c 0 -i 26 -a 0 -x {167774209.180 167773441.179 -1 ------- null}
+ -t 0.01 -s 8 -d 12 -p tcp -e 40 -c 0 -i 27 -a 0 -x {167774209.181 167775233.179 0 ------- null}
- -t 0.01 -s 8 -d 12 -p tcp -e 40 -c 0 -i 27 -a 0 -x {167774209.181 167775233.179 0 ------- null}
h -t 0.01 -s 8 -d 12 -p tcp -e 40 -c 0 -i 27 -a 0 -x {167774209.181 167775233.179 -1 ------- null}
+ -t 0.01 -s 8 -d 13 -p tcp -e 40 -c 0 -i 28 -a 0 -x {167774209.182 167775489.179 0 ------- null}
- -t 0.01 -s 8 -d 13 -p tcp -e 40 -c 0 -i 28 -a 0 -x {167774209.182 167775489.179 0 ------- null}
h -t 0.01 -s 8 -d 13 -p tcp -e 40 -c 0 -i 28 -a 0 -x {167774209.182 167775489.179 -1 ------- null}
+ -t 0.01 -s 8 -d 14 -p tcp -e 40 -c 0 -i 29 -a 0 -x {167774209.183 167775745.179 0 ------- null}
- -t 0.01 -s 8 -d 14 -p tcp -e 40 -c 0 -i 29 -a 0 -x {167774209.183 167775745.179 0 ------- null}
h -t 0.01 -s 8 -d 14 -p tcp -e 40 -c 0 -i 29 -a 0 -x {167774209.183 167775745.179 -1 ------- null}
+ -t 0.01 -s 9 -d 6 -p tcp -e 40 -c 0 -i 30 -a 0 -x {167774465.180 167773697.179 0 ------- null}
- -t 0.01 -s 9 -d 6 -p tcp -e 40 -c 0 -i 30 -a 0 -x {167774465.180 167773697.179 0 ------- null}
h -t 0.01 -s 9 -d 6 -p tcp -e 40 -c 0 -i 30 -a 0 -x {167774465.180 167773697.179 -1 ------- null}
+ -t 0.01 -s 9 -d 29 -p tcp -e 40 -c 0 -i 31 -a 0 -x {167774465.181 167779585.179 0 ------- null}
- -t 0.01 -s 9 -d 29 -p tcp -e 40 -c 0 -i 31 -a 0 -x {167774465.181 167779585.179 0 ------- null}
h -t 0.01 -s 9 -d 29 -p tcp -e 40 -c 0 -i 31 -a 0 -x {167774465.181 167779585.179 -1 ------- null}
+ -t 0.01 -s 10 -d 6 -p tcp -e 40 -c 0 -i 32 -a 0 -x {167774721.180 167773697.179 0 ------- null}
- -t 0.01 -s 10 -d 6 -p tcp -e 40 -c 0 -i 32 -a 0 -x {167774721.180 167773697.179 0 ------- null}
h -t 0.01 -s 10 -d 6 -p tcp -e 40 -c 0 -i 32 -a 0 -x {167774721.180 167773697.179 -1 ------- null}
+ -t 0.01 -s 11 -d 6 -p tcp -e 40 -c 0 -i 33 -a 0 -x {167774977.180 167773697.179 0 ------- null}
- -t 0.01 -s 11 -d 6 -p tcp -e 40 -c 0 -i 33 -a 0 -x {167774977.180 167773697.179 0 ------- null}
h -t 0.01 -s 11 -d 6 -p tcp -e 40 -c 0 -i 33 -a 0 -x {167774977.180 167773697.179 -1 ------- null}
+ -t 0.01 -s 12 -d 8 -p tcp -e 40 -c 0 -i 34 -a 0 -x {167775233.180 167774209.179 0 ------- null}
- -t 0.01 -s 12 -d 8 -p tcp -e 40 -c 0 -i 34 -a 0 -x {167775233.180 167774209.179 0 ------- null}
h -t 0.01 -s 12 -d 8 -p tcp -e 40 -c 0 -i 34 -a 0 -x {167775233.180 167774209.179 -1 ------- null}
+ -t 0.01 -s 13 -d 8 -p tcp -e 40 -c 0 -i 35 -a 0 -x {167775489.180 167774209.179 0 ------- null}
- -t 0.01 -s 13 -d 8 -p tcp -e 40 -c 0 -i 35 -a 0 -x {167775489.180 167774209.179 0 ------- null}
h -t 0.01 -s 13 -d 8 -p tcp -e 40 -c 0 -i 35 -a 0 -x {167775489.180 167774209.179 -1 ------- null}
+ -t 0.01 -s 14 -d 8 -p tcp -e 40 -c 0 -i 36 -a 0 -x {167775745.180 167774209.179 0 ------- null}
- -t 0.01 -s 14 -d 8 -p tcp -e 40 -c 0 -i 36 -a 0 -x {167775745.180 167774209.179 0 ------- null}
h -t 0.01 -s 14 -d 8 -p tcp -e 40 -c 0 -i 36 -a 0 -x {167775745.180 167774209.179 -1 ------- null}
+ -t 0.01 -s 14 -d 15 -p tcp -e 40 -c 0 -i 37 -a 0 -x {167775745.181 167776001.179 0 ------- null}
- -t 0.01 -s 14 -d 15 -p tcp -e 40 -c 0 -i 37 -a 0 -x {167775745.181 167776001.179 0 ------- null}
h -t 0.01 -s 14 -d 15 -p tcp -e 40 -c 0 -i 37 -a 0 -x {167775745.181 167776001.179 -1 ------- null}
+ -t 0.01 -s 14 -d 16 -p tcp -e 40 -c 0 -i 38 -a 0 -x {167775745.182 167776257.179 0 ------- null}
- -t 0.01 -s 14 -d 16 -p tcp -e 40 -c 0 -i 38 -a 0 -x {167775745.182 167776257.179 0 ------- null}
h -t 0.01 -s 14 -d 16 -p tcp -e 40 -c 0 -i 38 -a 0 -x {167775745.182 167776257.179 -1 ------- null}
+ -t 0.01 -s 14 -d 17 -p tcp -e 40 -c 0 -i 39 -a 0 -x {167775745.183 167776513.179 0 ------- null}
- -t 0.01 -s 14 -d 17 -p tcp -e 40 -c 0 -i 39 -a 0 -x {167775745.183 167776513.179 0 ------- null}
h -t 0.01 -s 14 -d 17 -p tcp -e 40 -c 0 -i 39 -a 0 -x {167775745.183 167776513.179 -1 ------- null}
+ -t 0.01 -s 15 -d 14 -p tcp -e 40 -c 0 -i 40 -a 0 -x {167776001.180 167775745.179 0 ------- null}
- -t 0.01 -s 15 -d 14 -p tcp -e 40 -c 0 -i 40 -a 0 -x {167776001.180 167775745.179 0 ------- null}
h -t 0.01 -s 15 -d 14 -p tcp -e 40 -c 0 -i 40 -a 0 -x {167776001.180 167775745.179 -1 ------- null}
+ -t 0.01 -s 15 -d 18 -p tcp -e 40 -c 0 -i 41 -a 0 -x {167776001.181 167776769.179 0 ------- null}
- -t 0.01 -s 15 -d 18 -p tcp -e 40 -c 0 -i 41 -a 0 -x {167776001.181 167776769.179 0 ------- null}
h -t 0.01 -s 15 -d 18 -p tcp -e 40 -c 0 -i 41 -a 0 -x {167776001.181 167776769.179 -1 ------- null}
+ -t 0.01 -s 16 -d 14 -p tcp -e 40 -c 0 -i 42 -a 0 -x {167776257.180 167775745.179 0 ------- null}
- -t 0.01 -s 16 -d 14 -p tcp -e 40 -c 0 -i 42 -a 0 -x {167776257.180 167775745.179 0 ------- null}
h -t 0.01 -s 16 -d 14 -p tcp -e 40 -c 0 -i 42 -a 0 -x {167776257.180 167775745.179 -1 ------- null}
+ -t 0.01 -s 17 -d 14 -p tcp -e 40 -c 0 -i 43 -a 0 -x {167776513.180 167775745.179 0 ------- null}
- -t 0.01 -s 17 -d 14 -p tcp -e 40 -c 0 -i 43 -a 0 -x {167776513.180 167775745.179 0 ------- null}
h -t 0.01 -s 17 -d 14 -p tcp -e 40 -c 0 -i 43 -a 0 -x {167776513.180 167775745.179 -1 ------- null}
+ -t 0.01 -s 18 -d 3 -p tcp -e 40 -c 0 -i 44 -a 0 -x {167776769.180 167772929.179 0 ------- null}
- -t 0.01 -s 18 -d 3 -p tcp -e 40 -c 0 -i 44 -a 0 -x {167776769.180 167772929.179 0 ------- null}
h -t 0.01 -s 18 -d 3 -p tcp -e 40 -c 0 -i 44 -a 0 -x {167776769.180 167772929.179 -1 ------- null}
+ -t 0.01 -s 18 -d 15 -p tcp -e 40 -c 0 -i 45 -a 0 -x {167776769.181 167776001.179 0 ------- null}
- -t 0.01 -s 18 -d 15 -p tcp -e 40 -c 0 -i 45 -a 0 -x {167776769.181 167776001.179 0 ------- null}
h -t 0.01 -s 18 -d 15 -p tcp -e 40 -c 0 -i 45 -a 0 -x {167776769.181 167776001.179 -1 ------- null}
+ -t 0.01 -s 19 -d 3 -p tcp -e 40 -c 0 -i 46 -a 0 -x {167777025.180 167772929.179 0 ------- null}
- -t 0.01 -s 19 -d 3 -p tcp -e 40 -c 0 -i 46 -a 0 -x {167777025.180 167772929.179 0 ------- null}
h -t 0.01 -s 19 -d 3 -p tcp -e 40 -c 0 -i 46 -a 0 -x {167777025.180 167772929.179 -1 ------- null}
+ -t 0.01 -s 19 -d 20 -p tcp -e 40 -c 0 -i 47 -a 0 -x {167777025.181 167777281.179 0 ------- null}
- -t 0.01 -s 19 -d 20 -p tcp -e 40 -c 0 -i 47 -a 0 -x {167777025.181 167777281.179 0 ------- null}
h -t 0.01 -s 19 -d 20 -p tcp -e 40 -c 0 -i 47 -a 0 -x {167777025.181 167777281.179 -1 ------- null}
+ -t 0.01 -s 19 -d 21 -p tcp -e 40 -c 0 -i 48 -a 0 -x {167777025.182 167777537.179 0 ------- null}
- -t 0.01 -s 19 -d 21 -p tcp -e 40 -c 0 -i 48 -a 0 -x {167777025.182 167777537.179 0 ------- null}
h -t 0.01 -s 19 -d 21 -p tcp -e 40 -c 0 -i 48 -a 0 -x {167777025.182 167777537.179 -1 ------- null}
+ -t 0.01 -s 19 -d 22 -p tcp -e 40 -c 0 -i 49 -a 0 -x {167777025.183 167777793.179 0 ------- null}
- -t 0.01 -s 19 -d 22 -p tcp -e 40 -c 0 -i 49 -a 0 -x {167777025.183 167777793.179 0 ------- null}
h -t 0.01 -s 19 -d 22 -p tcp -e 40 -c 0 -i 49 -a 0 -x {167777025.183 167777793.179 -1 ------- null}
+ -t 0.01 -s 20 -d 19 -p tcp -e 40 -c 0 -i 50 -a 0 -x {167777281.180 167777025.179 0 ------- null}
- -t 0.01 -s 20 -d 19 -p tcp -e 40 -c 0 -i 50 -a 0 -x {167777281.180 167777025.179 0 ------- null}
h -t 0.01 -s 20 -d 19 -p tcp -e 40 -c 0 -i 50 -a 0 -x {167777281.180 167777025.179 -1 ------- null}
+ -t 0.01 -s 21 -d 19 -p tcp -e 40 -c 0 -i 51 -a 0 -x {167777537.180 167777025.179 0 ------- null}
- -t 0.01 -s 21 -d 19 -p tcp -e 40 -c 0 -i 51 -a 0 -x {167777537.180 167777025.179 0 ------- null}
h -t 0.01 -s 21 -d 19 -p tcp -e 40 -c 0 -i 51 -a 0 -x {167777537.180 167777025.179 -1 ------- null}
+ -t 0.01 -s 22 -d 19 -p tcp -e 40 -c 0 -i 52 -a 0 -x {167777793.180 167777025.179 0 ------- null}
- -t 0.01 -s 22 -d 19 -p tcp -e 40 -c 0 -i 52 -a 0 -x {167777793.180 167777025.179 0 ------- null}
h -t 0.01 -s 22 -d 19 -p tcp -e 40 -c 0 -i 52 -a 0 -x {167777793.180 167777025.179 -1 ------- null}
+ -t 0.01 -s 23 -d 4 -p tcp -e 40 -c 0 -i 53 -a 0 -x {167778049.180 167773185.179 0 ------- null}
- -t 0.01 -s 23 -d 4 -p tcp -e 40 -c 0 -i 53 -a 0 -x {167778049.180 167773185.179 0 ------- null}
h -t 0.01 -s 23 -d 4 -p tcp -e 40 -c 0 -i 53 -a 0 -x {167778049.180 167773185.179 -1 ------- null}
+ -t 0.01 -s 23 -d 25 -p tcp -e 40 -c 0 -i 54 -a 0 -x {167778049.181 167778561.179 0 ------- null}
- -t 0.01 -s 23 -d 25 -p tcp -e 40 -c 0 -i 54 -a 0 -x {167778049.181 167778561.179 0 ------- null}
h -t 0.01 -s 23 -d 25 -p tcp -e 40 -c 0 -i 54 -a 0 -x {167778049.181 167778561.179 -1 ------- null}
+ -t 0.01 -s 23 -d 26 -p tcp -e 40 -c 0 -i 55 -a 0 -x {167778049.182 167778817.179 0 ------- null}
- -t 0.01 -s 23 -d 26 -p tcp -e 40 -c 0 -i 55 -a 0 -x {167778049.182 167778817.179 0 ------- null}
h -t 0.01 -s 23 -d 26 -p tcp -e 40 -c 0 -i 55 -a 0 -x {167778049.182 167778817.179 -1 ------- null}
+ -t 0.01 -s 24 -d 4 -p tcp -e 40 -c 0 -i 56 -a 0 -x {167778305.180 167773185.179 0 ------- null}
- -t 0.01 -s 24 -d 4 -p tcp -e 40 -c 0 -i 56 -a 0 -x {167778305.180 167773185.179 0 ------- null}
h -t 0.01 -s 24 -d 4 -p tcp -e 40 -c 0 -i 56 -a 0 -x {167778305.180 167773185.179 -1 ------- null}
+ -t 0.01 -s 24 -d 27 -p tcp -e 40 -c 0 -i 57 -a 0 -x {167778305.181 167779073.179 0 ------- null}
- -t 0.01 -s 24 -d 27 -p tcp -e 40 -c 0 -i 57 -a 0 -x {167778305.181 167779073.179 0 ------- null}
h -t 0.01 -s 24 -d 27 -p tcp -e 40 -c 0 -i 57 -a 0 -x {167778305.181 167779073.179 -1 ------- null}
+ -t 0.01 -s 24 -d 28 -p tcp -e 40 -c 0 -i 58 -a 0 -x {167778305.182 167779329.179 0 ------- null}
- -t 0.01 -s 24 -d 28 -p tcp -e 40 -c 0 -i 58 -a 0 -x {167778305.182 167779329.179 0 ------- null}
h -t 0.01 -s 24 -d 28 -p tcp -e 40 -c 0 -i 58 -a 0 -x {167778305.182 167779329.179 -1 ------- null}
+ -t 0.01 -s 24 -d 29 -p tcp -e 40 -c 0 -i 59 -a 0 -x {167778305.183 167779585.179 0 ------- null}
- -t 0.01 -s 24 -d 29 -p tcp -e 40 -c 0 -i 59 -a 0 -x {167778305.183 167779585.179 0 ------- null}
h -t 0.01 -s 24 -d 29 -p tcp -e 40 -c 0 -i 59 -a 0 -x {167778305.183 167779585.179 -1 ------- null}
+ -t 0.01 -s 25 -d 23 -p tcp -e 40 -c 0 -i 60 -a 0 -x {167778561.180 167778049.179 0 ------- null}
- -t 0.01 -s 25 -d 23 -p tcp -e 40 -c 0 -i 60 -a 0 -x {167778561.180 167778049.179 0 ------- null}
h -t 0.01 -s 25 -d 23 -p tcp -e 40 -c 0 -i 60 -a 0 -x {167778561.180 167778049.179 -1 ------- null}
+ -t 0.01 -s 26 -d 23 -p tcp -e 40 -c 0 -i 61 -a 0 -x {167778817.180 167778049.179 0 ------- null}
- -t 0.01 -s 26 -d 23 -p tcp -e 40 -c 0 -i 61 -a 0 -x {167778817.180 167778049.179 0 ------- null}
h -t 0.01 -s 26 -d 23 -p tcp -e 40 -c 0 -i 61 -a 0 -x {167778817.180 167778049.179 -1 ------- null}
+ -t 0.01 -s 27 -d 24 -p tcp -e 40 -c 0 -i 62 -a 0 -x {167779073.180 167778305.179 0 ------- null}
- -t 0.01 -s 27 -d 24 -p tcp -e 40 -c 0 -i 62 -a 0 -x {167779073.180 167778305.179 0 ------- null}
h -t 0.01 -s 27 -d 24 -p tcp -e 40 -c 0 -i 62 -a 0 -x {167779073.180 167778305.179 -1 ------- null}
+ -t 0.01 -s 27 -d 30 -p tcp -e 40 -c 0 -i 63 -a 0 -x {167779073.181 167779841.179 0 ------- null}
- -t 0.01 -s 27 -d 30 -p tcp -e 40 -c 0 -i 63 -a 0 -x {167779073.181 167779841.179 0 ------- null}
h -t 0.01 -s 27 -d 30 -p tcp -e 40 -c 0 -i 63 -a 0 -x {167779073.181 167779841.179 -1 ------- null}
+ -t 0.01 -s 27 -d 31 -p tcp -e 40 -c 0 -i 64 -a 0 -x {167779073.182 167780097.179 0 ------- null}
- -t 0.01 -s 27 -d 31 -p tcp -e 40 -c 0 -i 64 -a 0 -x {167779073.182 167780097.179 0 ------- null}
h -t 0.01 -s 27 -d 31 -p tcp -e 40 -c 0 -i 64 -a 0 -x {167779073.182 167780097.179 -1 ------- null}
+ -t 0.01 -s 28 -d 24 -p tcp -e 40 -c 0 -i 65 -a 0 -x {167779329.180 167778305.179 0 ------- null}
- -t 0.01 -s 28 -d 24 -p tcp -e 40 -c 0 -i 65 -a 0 -x {167779329.180 167778305.179 0 ------- null}
h -t 0.01 -s 28 -d 24 -p tcp -e 40 -c 0 -i 65 -a 0 -x {167779329.180 167778305.179 -1 ------- null}
+ -t 0.01 -s 29 -d 24 -p tcp -e 40 -c 0 -i 66 -a 0 -x {167779585.180 167778305.179 0 ------- null}
- -t 0.01 -s 29 -d 24 -p tcp -e 40 -c 0 -i 66 -a 0 -x {167779585.180 167778305.179 0 ------- null}
h -t 0.01 -s 29 -d 24 -p tcp -e 40 -c 0 -i 66 -a 0 -x {167779585.180 167778305.179 -1 ------- null}
+ -t 0.01 -s 29 -d 9 -p tcp -e 40 -c 0 -i 67 -a 0 -x {167779585.181 167774465.179 0 ------- null}
- -t 0.01 -s 29 -d 9 -p tcp -e 40 -c 0 -i 67 -a 0 -x {167779585.181 167774465.179 0 ------- null}
h -t 0.01 -s 29 -d 9 -p tcp -e 40 -c 0 -i 67 -a 0 -x {167779585.181 167774465.179 -1 ------- null}
+ -t 0.01 -s 30 -d 27 -p tcp -e 40 -c 0 -i 68 -a 0 -x {167779841.180 167779073.179 0 ------- null}
- -t 0.01 -s 30 -d 27 -p tcp -e 40 -c 0 -i 68 -a 0 -x {167779841.180 167779073.179 0 ------- null}
h -t 0.01 -s 30 -d 27 -p tcp -e 40 -c 0 -i 68 -a 0 -x {167779841.180 167779073.179 -1 ------- null}
+ -t 0.01 -s 31 -d 27 -p tcp -e 40 -c 0 -i 69 -a 0 -x {167780097.180 167779073.179 0 ------- null}
- -t 0.01 -s 31 -d 27 -p tcp -e 40 -c 0 -i 69 -a 0 -x {167780097.180 167779073.179 0 ------- null}
h -t 0.01 -s 31 -d 27 -p tcp -e 40 -c 0 -i 69 -a 0 -x {167780097.180 167779073.179 -1 ------- null}
r -t 0.01132 -s 0 -d 1 -p tcp -e 40 -c 0 -i 0 -a 0 -x {167772161.180 167772417.179 0 ------- null}
+ -t 0.01132 -s 1 -d 0 -p ack -e 40 -c 0 -i 70 -a 0 -x {167772417.179 167772161.180 0 ------- null}
- -t 0.01132 -s 1 -d 0 -p ack -e 40 -c 0 -i 70 -a 0 -x {167772417.179 167772161.180 0 ------- null}
h -t 0.01132 -s 1 -d 0 -p ack -e 40 -c 0 -i 70 -a 0 -x {167772417.179 167772161.180 -1 ------- null}
r -t 0.01132 -s 0 -d 4 -p tcp -e 40 -c 0 -i 1 -a 0 -x {167772161.181 167773185.179 0 ------- null}
+ -t 0.01132 -s 4 -d 0 -p ack -e 40 -c 0 -i 71 -a 0 -x {167773185.179 167772161.181 0 ------- null}
- -t 0.01132 -s 4 -d 0 -p ack -e 40 -c 0 -i 71 -a 0 -x {167773185.179 167772161.181 0 ------- null}
h -t 0.01132 -s 4 -d 0 -p ack -e 40 -c 0 -i 71 -a 0 -x {167773185.179 167772161.181 -1 ------- null}
r -t 0.01132 -s 1 -d 0 -p tcp -e 40 -c 0 -i 2 -a 0 -x {167772417.180 167772161.179 0 ------- null}
+ -t 0.01132 -s 0 -d 1 -p ack -e 40 -c 0 -i 72 -a 0 -x {167772161.179 167772417.180 0 ------- null}
- -t 0.01132 -s 0 -d 1 -p ack -e 40 -c 0 -i 72 -a 0 -x {167772161.179 167772417.180 0 ------- null}
h -t 0.01132 -s 0 -d 1 -p ack -e 40 -c 0 -i 72 -a 0 -x {167772161.179 167772417.180 -1 ------- null}
r -t 0.01132 -s 1 -d 2 -p tcp -e 40 -c 0 -i 3 -a 0 -x {167772417.181 167772673.179 0 ------- null}
+ -t 0.01132 -s 2 -d 1 -p ack -e 40 -c 0 -i 73 -a 0 -x {167772673.179 167772417.181 0 ------- null}
- -t 0.01132 -s 2 -d 1 -p ack -e 40 -c 0 -i 73 -a 0 -x {167772673.179 167772417.181 0 ------- null}
h -t 0.01132 -s 2 -d 1 -p ack -e 40 -c 0 -i 73 -a 0 -x {167772673.179 167772417.181 -1 ------- null}
r -t 0.01132 -s 1 -d 5 -p tcp -e 40 -c 0 -i 4 -a 0 -x {167772417.182 167773441.179 0 ------- null}
+ -t 0.01132 -s 5 -d 1 -p ack -e 40 -c 0 -i 74 -a 0 -x {167773441.179 167772417.182 0 ------- null}