+ 0.01 0 1 tcp 40 ------- 0 167772161.180 167772417.179 0 0
- 0.01 0 1 tcp 40 ------- 0 167772161.180 167772417.179 0 0
+ 0.01 0 4 tcp 40 ------- 0 167772161.181 167773185.179 0 1
- 0.01 0 4 tcp 40 ------- 0 167772161.181 167773185.179 0 1
+ 0.01 1 0 tcp 40 ------- 0 167772417.180 167772161.179 0 2
- 0.01 1 0 tcp 40 ------- 0 167772417.180 167772161.179 0 2
+ 0.01 1 2 tcp 40 ------- 0 167772417.181 167772673.179 0 3
- 0.01 1 2 tcp 40 ------- 0 167772417.181 167772673.179 0 3
+ 0.01 1 5 tcp 40 ------- 0 167772417.182 167773441.179 0 4
- 0.01 1 5 tcp 40 ------- 0 167772417.182 167773441.179 0 4
+ 0.01 2 1 tcp 40 ------- 0 167772673.180 167772417.179 0 5
- 0.01 2 1 tcp 40 ------- 0 167772673.180 167772417.179 0 5
+ 0.01 2 4 tcp 40 ------- 0 167772673.181 167773185.179 0 6
- 0.01 2 4 tcp 40 ------- 0 167772673.181 167773185.179 0 6
+ 0.01 2 3 tcp 40 ------- 0 167772673.182 167772929.179 0 7
- 0.01 2 3 tcp 40 ------- 0 167772673.182 167772929.179 0 7
+ 0.01 3 2 tcp 40 ------- 0 167772929.180 167772673.179 0 8
- 0.01 3 2 tcp 40 ------- 0 167772929.180 167772673.179 0 8
+ 0.01 3 4 tcp 40 ------- 0 167772929.181 167773185.179 0 9
- 0.01 3 4 tcp 40 ------- 0 167772929.181 167773185.179 0 9
+ 0.01 3 18 tcp 40 ------- 0 167772929.182 167776769.179 0 10
- 0.01 3 18 tcp 40 ------- 0 167772929.182 167776769.179 0 10
+ 0.01 3 19 tcp 40 ------- 0 167772929.183 167777025.179 0 11
- 0.01 3 19 tcp 40 ------- 0 167772929.183 167777025.179 0 11
+ 0.01 4 0 tcp 40 ------- 0 167773185.180 167772161.179 0 12
- 0.01 4 0 tcp 40 ------- 0 167773185.180 167772161.179 0 12
+ 0.01 4 2 tcp 40 ------- 0 167773185.181 167772673.179 0 13
- 0.01 4 2 tcp 40 ------- 0 167773185.181 167772673.179 0 13
+ 0.01 4 3 tcp 40 ------- 0 167773185.182 167772929.179 0 14
- 0.01 4 3 tcp 40 ------- 0 167773185.182 167772929.179 0 14
+ 0.01 4 23 tcp 40 ------- 0 167773185.183 167778049.179 0 15
- 0.01 4 23 tcp 40 ------- 0 167773185.183 167778049.179 0 15
+ 0.01 4 24 tcp 40 ------- 0 167773185.184 167778305.179 0 16
- 0.01 4 24 tcp 40 ------- 0 167773185.184 167778305.179 0 16
+ 0.01 5 1 tcp 40 ------- 0 167773441.180 167772417.179 0 17
- 0.01 5 1 tcp 40 ------- 0 167773441.180 167772417.179 0 17
+ 0.01 5 6 tcp 40 ------- 0 167773441.181 167773697.179 0 18
- 0.01 5 6 tcp 40 ------- 0 167773441.181 167773697.179 0 18
+ 0.01 5 7 tcp 40 ------- 0 167773441.182 167773953.179 0 19
- 0.01 5 7 tcp 40 ------- 0 167773441.182 167773953.179 0 19
+ 0.01 5 8 tcp 40 ------- 0 167773441.183 167774209.179 0 20
- 0.01 5 8 tcp 40 ------- 0 167773441.183 167774209.179 0 20
+ 0.01 6 5 tcp 40 ------- 0 167773697.180 167773441.179 0 21
- 0.01 6 5 tcp 40 ------- 0 167773697.180 167773441.179 0 21
+ 0.01 6 9 tcp 40 ------- 0 167773697.181 167774465.179 0 22
- 0.01 6 9 tcp 40 ------- 0 167773697.181 167774465.179 0 22
+ 0.01 6 10 tcp 40 ------- 0 167773697.182 167774721.179 0 23
- 0.01 6 10 tcp 40 ------- 0 167773697.182 167774721.179 0 23
+ 0.01 6 11 tcp 40 ------- 0 167773697.183 167774977.179 0 24
- 0.01 6 11 tcp 40 ------- 0 167773697.183 167774977.179 0 24
+ 0.01 7 5 tcp 40 ------- 0 167773953.180 167773441.179 0 25
- 0.01 7 5 tcp 40 ------- 0 167773953.180 167773441.179 0 25
+ 0.01 8 5 tcp 40 ------- 0 167774209.180 167773441.179 0 26
- 0.01 8 5 tcp 40 ------- 0 167774209.180 167773441.179 0 26
+ 0.01 8 12 tcp 40 ------- 0 167774209.181 167775233.179 0 27
- 0.01 8 12 tcp 40 ------- 0 167774209.181 167775233.179 0 27
+ 0.01 8 13 tcp 40 ------- 0 167774209.182 167775489.179 0 28
- 0.01 8 13 tcp 40 ------- 0 167774209.182 167775489.179 0 28
+ 0.01 8 14 tcp 40 ------- 0 167774209.183 167775745.179 0 29
- 0.01 8 14 tcp 40 ------- 0 167774209.183 167775745.179 0 29
+ 0.01 9 6 tcp 40 ------- 0 167774465.180 167773697.179 0 30
- 0.01 9 6 tcp 40 ------- 0 167774465.180 167773697.179 0 30
+ 0.01 9 29 tcp 40 ------- 0 167774465.181 167779585.179 0 31
- 0.01 9 29 tcp 40 ------- 0 167774465.181 167779585.179 0 31
+ 0.01 10 6 tcp 40 ------- 0 167774721.180 167773697.179 0 32
- 0.01 10 6 tcp 40 ------- 0 167774721.180 167773697.179 0 32
+ 0.01 11 6 tcp 40 ------- 0 167774977.180 167773697.179 0 33
- 0.01 11 6 tcp 40 ------- 0 167774977.180 167773697.179 0 33
+ 0.01 12 8 tcp 40 ------- 0 167775233.180 167774209.179 0 34
- 0.01 12 8 tcp 40 ------- 0 167775233.180 167774209.179 0 34
+ 0.01 13 8 tcp 40 ------- 0 167775489.180 167774209.179 0 35
- 0.01 13 8 tcp 40 ------- 0 167775489.180 167774209.179 0 35
+ 0.01 14 8 tcp 40 ------- 0 167775745.180 167774209.179 0 36
- 0.01 14 8 tcp 40 ------- 0 167775745.180 167774209.179 0 36
+ 0.01 14 15 tcp 40 ------- 0 167775745.181 167776001.179 0 37
- 0.01 14 15 tcp 40 ------- 0 167775745.181 167776001.179 0 37
+ 0.01 14 16 tcp 40 ------- 0 167775745.182 167776257.179 0 38
- 0.01 14 16 tcp 40 ------- 0 167775745.182 167776257.179 0 38
+ 0.01 14 17 tcp 40 ------- 0 167775745.183 167776513.179 0 39
- 0.01 14 17 tcp 40 ------- 0 167775745.183 167776513.179 0 39
+ 0.01 15 14 tcp 40 ------- 0 167776001.180 167775745.179 0 40
- 0.01 15 14 tcp 40 ------- 0 167776001.180 167775745.179 0 40
+ 0.01 15 18 tcp 40 ------- 0 167776001.181 167776769.179 0 41
- 0.01 15 18 tcp 40 ------- 0 167776001.181 167776769.179 0 41
+ 0.01 16 14 tcp 40 ------- 0 167776257.180 167775745.179 0 42
- 0.01 16 14 tcp 40 ------- 0 167776257.180 167775745.179 0 42
+ 0.01 17 14 tcp 40 ------- 0 167776513.180 167775745.179 0 43
- 0.01 17 14 tcp 40 ------- 0 167776513.180 167775745.179 0 43
+ 0.01 18 3 tcp 40 ------- 0 167776769.180 167772929.179 0 44
- 0.01 18 3 tcp 40 ------- 0 167776769.180 167772929.179 0 44
+ 0.01 18 15 tcp 40 ------- 0 167776769.181 167776001.179 0 45
- 0.01 18 15 tcp 40 ------- 0 167776769.181 167776001.179 0 45
+ 0.01 19 3 tcp 40 ------- 0 167777025.180 167772929.179 0 46
- 0.01 19 3 tcp 40 ------- 0 167777025.180 167772929.179 0 46
+ 0.01 19 20 tcp 40 ------- 0 167777025.181 167777281.179 0 47
- 0.01 19 20 tcp 40 ------- 0 167777025.181 167777281.179 0 47
+ 0.01 19 21 tcp 40 ------- 0 167777025.182 167777537.179 0 48
- 0.01 19 21 tcp 40 ------- 0 167777025.182 167777537.179 0 48
+ 0.01 19 22 tcp 40 ------- 0 167777025.183 167777793.179 0 49
- 0.01 19 22 tcp 40 ------- 0 167777025.183 167777793.179 0 49
+ 0.01 20 19 tcp 40 ------- 0 167777281.180 167777025.179 0 50
- 0.01 20 19 tcp 40 ------- 0 167777281.180 167777025.179 0 50
+ 0.01 21 19 tcp 40 ------- 0 167777537.180 167777025.179 0 51
- 0.01 21 19 tcp 40 ------- 0 167777537.180 167777025.179 0 51
+ 0.01 22 19 tcp 40 ------- 0 167777793.180 167777025.179 0 52
- 0.01 22 19 tcp 40 ------- 0 167777793.180 167777025.179 0 52
+ 0.01 23 4 tcp 40 ------- 0 167778049.180 167773185.179 0 53
- 0.01 23 4 tcp 40 ------- 0 167778049.180 167773185.179 0 53
+ 0.01 23 25 tcp 40 ------- 0 167778049.181 167778561.179 0 54
- 0.01 23 25 tcp 40 ------- 0 167778049.181 167778561.179 0 54
+ 0.01 23 26 tcp 40 ------- 0 167778049.182 167778817.179 0 55
- 0.01 23 26 tcp 40 ------- 0 167778049.182 167778817.179 0 55
+ 0.01 24 4 tcp 40 ------- 0 167778305.180 167773185.179 0 56
- 0.01 24 4 tcp 40 ------- 0 167778305.180 167773185.179 0 56
+ 0.01 24 27 tcp 40 ------- 0 167778305.181 167779073.179 0 57
- 0.01 24 27 tcp 40 ------- 0 167778305.181 167779073.179 0 57
+ 0.01 24 28 tcp 40 ------- 0 167778305.182 167779329.179 0 58
- 0.01 24 28 tcp 40 ------- 0 167778305.182 167779329.179 0 58
+ 0.01 24 29 tcp 40 ------- 0 167778305.183 167779585.179 0 59
- 0.01 24 29 tcp 40 ------- 0 167778305.183 167779585.179 0 59
+ 0.01 25 23 tcp 40 ------- 0 167778561.180 167778049.179 0 60
- 0.01 25 23 tcp 40 ------- 0 167778561.180 167778049.179 0 60
+ 0.01 26 23 tcp 40 ------- 0 167778817.180 167778049.179 0 61
- 0.01 26 23 tcp 40 ------- 0 167778817.180 167778049.179 0 61
+ 0.01 27 24 tcp 40 ------- 0 167779073.180 167778305.179 0 62
- 0.01 27 24 tcp 40 ------- 0 167779073.180 167778305.179 0 62
+ 0.01 27 30 tcp 40 ------- 0 167779073.181 167779841.179 0 63
- 0.01 27 30 tcp 40 ------- 0 167779073.181 167779841.179 0 63
+ 0.01 27 31 tcp 40 ------- 0 167779073.182 167780097.179 0 64
- 0.01 27 31 tcp 40 ------- 0 167779073.182 167780097.179 0 64
+ 0.01 28 24 tcp 40 ------- 0 167779329.180 167778305.179 0 65
- 0.01 28 24 tcp 40 ------- 0 167779329.180 167778305.179 0 65
+ 0.01 29 24 tcp 40 ------- 0 167779585.180 167778305.179 0 66
- 0.01 29 24 tcp 40 ------- 0 167779585.180 167778305.179 0 66
+ 0.01 29 9 tcp 40 ------- 0 167779585.181 167774465.179 0 67
- 0.01 29 9 tcp 40 ------- 0 167779585.181 167774465.179 0 67
+ 0.01 30 27 tcp 40 ------- 0 167779841.180 167779073.179 0 68
- 0.01 30 27 tcp 40 ------- 0 167779841.180 167779073.179 0 68
+ 0.01 31 27 tcp 40 ------- 0 167780097.180 167779073.179 0 69
- 0.01 31 27 tcp 40 ------- 0 167780097.180 167779073.179 0 69
r 0.01132 0 1 tcp 40 ------- 0 167772161.180 167772417.179 0 0
+ 0.01132 1 0 ack 40 ------- 0 167772417.179 167772161.180 0 70
- 0.01132 1 0 ack 40 ------- 0 167772417.179 167772161.180 0 70
r 0.01132 0 4 tcp 40 ------- 0 167772161.181 167773185.179 0 1
+ 0.01132 4 0 ack 40 ------- 0 167773185.179 167772161.181 0 71
- 0.01132 4 0 ack 40 ------- 0 167773185.179 167772161.181 0 71
r 0.01132 1 0 tcp 40 ------- 0 167772417.180 167772161.179 0 2
+ 0.01132 0 1 ack 40 ------- 0 167772161.179 167772417.180 0 72
- 0.01132 0 1 ack 40 ------- 0 167772161.179 167772417.180 0 72
r 0.01132 1 2 tcp 40 ------- 0 167772417.181 167772673.179 0 3
+ 0.01132 2 1 ack 40 ------- 0 167772673.179 167772417.181 0 73
- 0.01132 2 1 ack 40 ------- 0 167772673.179 167772417.181 0 73
r 0.01132 1 5 tcp 40 ------- 0 167772417.182 167773441.179 0 4
+ 0.01132 5 1 ack 40 ------- 0 167773441.179 167772417.182 0 74
- 0.01132 5 1 ack 40 ------- 0 167773441.179 167772417.182 0 74
r 0.01132 2 1 tcp 40 ------- 0 167772673.180 167772417.179 0 5
+ 0.01132 1 2 ack 40 ------- 0 167772417.179 167772673.180 0 75
- 0.01132 1 2 ack 40 ------- 0 167772417.179 167772673.180 0 75
r 0.01132 2 4 tcp 40 ------- 0 167772673.181 167773185.179 0 6
+ 0.01132 4 2 ack 40 ------- 0 167773185.179 167772673.181 0 76
- 0.01132 4 2 ack 40 ------- 0 167773185.179 167772673.181 0 76
r 0.01132 2 3 tcp 40 ------- 0 167772673.182 167772929.179 0 7
+ 0.01132 3 2 ack 40 ------- 0 167772929.179 167772673.182 0 77
- 0.01132 3 2 ack 40 ------- 0 167772929.179 167772673.182 0 77
r 0.01132 3 2 tcp 40 ------- 0 167772929.180 167772673.179 0 8
+ 0.01132 2 3 ack 40 ------- 0 167772673.179 167772929.180 0 78
- 0.01132 2 3 ack 40 ------- 0 167772673.179 167772929.180 0 78
r 0.01132 3 4 tcp 40 ------- 0 167772929.181 167773185.179 0 9
+ 0.01132 4 3 ack 40 ------- 0 167773185.179 167772929.181 0 79
- 0.01132 4 3 ack 40 ------- 0 167773185.179 167772929.181 0 79
r 0.01132 3 18 tcp 40 ------- 0 167772929.182 167776769.179 0 10
+ 0.01132 18 3 ack 40 ------- 0 167776769.179 167772929.182 0 80
- 0.01132 18 3 ack 40 ------- 0 167776769.179 167772929.182 0 80
r 0.01132 3 19 tcp 40 ------- 0 167772929.183 167777025.179 0 11
+ 0.01132 19 3 ack 40 ------- 0 167777025.179 167772929.183 0 81
- 0.01132 19 3 ack 40 ------- 0 167777025.179 167772929.183 0 81
r 0.01132 4 0 tcp 40 ------- 0 167773185.180 167772161.179 0 12
+ 0.01132 0 4 ack 40 ------- 0 167772161.179 167773185.180 0 82
- 0.01132 0 4 ack 40 ------- 0 167772161.179 167773185.180 0 82
r 0.01132 4 2 tcp 40 ------- 0 167773185.181 167772673.179 0 13
+ 0.01132 2 4 ack 40 ------- 0 167772673.179 167773185.181 0 83
- 0.01132 2 4 ack 40 ------- 0 167772673.179 167773185.181 0 83
r 0.01132 4 3 tcp 40 ------- 0 167773185.182 167772929.179 0 14
+ 0.01132 3 4 ack 40 ------- 0 167772929.179 167773185.182 0 84
- 0.01132 3 4 ack 40 ------- 0 167772929.179 167773185.182 0 84
r 0.01132 4 23 tcp 40 ------- 0 167773185.183 167778049.179 0 15
+ 0.01132 23 4 ack 40 ------- 0 167778049.179 167773185.183 0 85
- 0.01132 23 4 ack 40 ------- 0 167778049.179 167773185.183 0 85
r 0.01132 4 24 tcp 40 ------- 0 167773185.184 167778305.179 0 16
+ 0.01132 24 4 ack 40 ------- 0 167778305.179 167773185.184 0 86
- 0.01132 24 4 ack 40 ------- 0 167778305.179 167773185.184 0 86
r 0.01132 5 1 tcp 40 ------- 0 167773441.180 167772417.179 0 17
+ 0.01132 1 5 ack 40 ------- 0 167772417.179 167773441.180 0 87
- 0.01132 1 5 ack 40 ------- 0 167772417.179 167773441.180 0 87
r 0.01132 5 6 tcp 40 ------- 0 167773441.181 167773697.179 0 18
+ 0.01132 6 5 ack 40 ------- 0 167773697.179 167773441.181 0 88
- 0.01132 6 5 ack 40 ------- 0 167773697.179 167773441.181 0 88
r 0.01132 5 7 tcp 40 ------- 0 167773441.182 167773953.179 0 19
+ 0.01132 7 5 ack 40 ------- 0 167773953.179 167773441.182 0 89
- 0.01132 7 5 ack 40 ------- 0 167773953.179 167773441.182 0 89
r 0.01132 5 8 tcp 40 ------- 0 167773441.183 167774209.179 0 20
+ 0.01132 8 5 ack 40 ------- 0 167774209.179 167773441.183 0 90
- 0.01132 8 5 ack 40 ------- 0 167774209.179 167773441.183 0 90
r 0.01132 6 5 tcp 40 ------- 0 167773697.180 167773441.179 0 21
+ 0.01132 5 6 ack 40 ------- 0 167773441.179 167773697.180 0 91
- 0.01132 5 6 ack 40 ------- 0 167773441.179 167773697.180 0 91
r 0.01132 6 9 tcp 40 ------- 0 167773697.181 167774465.179 0 22
+ 0.01132 9 6 ack 40 ------- 0 167774465.179 167773697.181 0 92
- 0.01132 9 6 ack 40 ------- 0 167774465.179 167773697.181 0 92
r 0.01132 6 10 tcp 40 ------- 0 167773697.182 167774721.179 0 23
+ 0.01132 10 6 ack 40 ------- 0 167774721.179 167773697.182 0 93
- 0.01132 10 6 ack 40 ------- 0 167774721.179 167773697.182 0 93
r 0.01132 6 11 tcp 40 ------- 0 167773697.183 167774977.179 0 24
+ 0.01132 11 6 ack 40 ------- 0 167774977.179 167773697.183 0 94
- 0.01132 11 6 ack 40 ------- 0 167774977.179 167773697.183 0 94
r 0.01132 7 5 tcp 40 ------- 0 167773953.180 167773441.179 0 25
+ 0.01132 5 7 ack 40 ------- 0 167773441.179 167773953.180 0 95
- 0.01132 5 7 ack 40 ------- 0 167773441.179 167773953.180 0 95
r 0.01132 8 5 tcp 40 ------- 0 167774209.180 167773441.179 0 26
+ 0.01132 5 8 ack 40 ------- 0 167773441.179 167774209.180 0 96
- 0.01132 5 8 ack 40 ------- 0 167773441.179 167774209.180 0 96
r 0.01132 8 12 tcp 40 ------- 0 167774209.181 167775233.179 0 27
+ 0.01132 12 8 ack 40 ------- 0 167775233.179 167774209.181 0 97
- 0.01132 12 8 ack 40 ------- 0 167775233.179 167774209.181 0 97
r 0.01132 8 13 tcp 40 ------- 0 167774209.182 167775489.179 0 28
+ 0.01132 13 8 ack 40 ------- 0 167775489.179 167774209.182 0 98
- 0.01132 13 8 ack 40 ------- 0 167775489.179 167774209.182 0 98
r 0.01132 8 14 tcp 40 ------- 0 167774209.183 167775745.179 0 29
+ 0.01132 14 8 ack 40 ------- 0 167775745.179 167774209.183 0 99
- 0.01132 14 8 ack 40 ------- 0 167775745.179 167774209.183 0 99
r 0.01132 9 6 tcp 40 ------- 0 167774465.180 167773697.179 0 30
+ 0.01132 6 9 ack 40 ------- 0 167773697.179 167774465.180 0 100
- 0.01132 6 9 ack 40 ------- 0 167773697.179 167774465.180 0 100
r 0.01132 9 29 tcp 40 ------- 0 167774465.181 167779585.179 0 31
+ 0.01132 29 9 ack 40 ------- 0 167779585.179 167774465.181 0 101
- 0.01132 29 9 ack 40 ------- 0 167779585.179 167774465.181 0 101
r 0.01132 10 6 tcp 40 ------- 0 167774721.180 167773697.179 0 32
+ 0.01132 6 10 ack 40 ------- 0 167773697.179 167774721.180 0 102
- 0.01132 6 10 ack 40 ------- 0 167773697.179 167774721.180 0 102
r 0.01132 11 6 tcp 40 ------- 0 167774977.180 167773697.179 0 33
+ 0.01132 6 11 ack 40 ------- 0 167773697.179 167774977.180 0 103
- 0.01132 6 11 ack 40 ------- 0 167773697.179 167774977.180 0 103
r 0.01132 12 8 tcp 40 ------- 0 167775233.180 167774209.179 0 34
+ 0.01132 8 12 ack 40 ------- 0 167774209.179 167775233.180 0 104
- 0.01132 8 12 ack 40 ------- 0 167774209.179 167775233.180 0 104
r 0.01132 13 8 tcp 40 ------- 0 167775489.180 167774209.179 0 35
+ 0.01132 8 13 ack 40 ------- 0 167774209.179 167775489.180 0 105
- 0.01132 8 13 ack 40 ------- 0 167774209.179 167775489.180 0 105
r 0.01132 14 8 tcp 40 ------- 0 167775745.180 167774209.179 0 36
+ 0.01132 8 14 ack 40 ------- 0 167774209.179 167775745.180 0 106
- 0.01132 8 14 ack 40 ------- 0 167774209.179 167775745.180 0 106
r 0.01132 14 15 tcp 40 ------- 0 167775745.181 167776001.179 0 37
+ 0.01132 15 14 ack 40 ------- 0 167776001.179 167775745.181 0 107
- 0.01132 15 14 ack 40 ------- 0 167776001.179 167775745.181 0 107
r 0.01132 14 16 tcp 40 ------- 0 167775745.182 167776257.179 0 38
+ 0.01132 16 14 ack 40 ------- 0 167776257.179 167775745.182 0 108
- 0.01132 16 14 ack 40 ------- 0 167776257.179 167775745.182 0 108
r 0.01132 14 17 tcp 40 ------- 0 167775745.183 167776513.179 0 39
+ 0.01132 17 14 ack 40 ------- 0 167776513.179 167775745.183 0 109
- 0.01132 17 14 ack 40 ------- 0 167776513.179 167775745.183 0 109
r 0.01132 15 14 tcp 40 ------- 0 167776001.180 167775745.179 0 40
+ 0.01132 14 15 ack 40 ------- 0 167775745.179 167776001.180 0 110
- 0.01132 14 15 ack 40 ------- 0 167775745.179 167776001.180 0 110
r 0.01132 15 18 tcp 40 ------- 0 167776001.181 167776769.179 0 41
+ 0.01132 18 15 ack 40 ------- 0 167776769.179 167776001.181 0 111
- 0.01132 18 15 ack 40 ------- 0 167776769.179 167776001.181 0 111
r 0.01132 16 14 tcp 40 ------- 0 167776257.180 167775745.179 0 42
+ 0.01132 14 16 ack 40 ------- 0 167775745.179 167776257.180 0 112
- 0.01132 14 16 ack 40 ------- 0 167775745.179 167776257.180 0 112
r 0.01132 17 14 tcp 40 ------- 0 167776513.180 167775745.179 0 43
+ 0.01132 14 17 ack 40 ------- 0 167775745.179 167776513.180 0 113
- 0.01132 14 17 ack 40 ------- 0 167775745.179 167776513.180 0 113
r 0.01132 18 3 tcp 40 ------- 0 167776769.180 167772929.179 0 44
+ 0.01132 3 18 ack 40 ------- 0 167772929.179 167776769.180 0 114
- 0.01132 3 18 ack 40 ------- 0 167772929.179 167776769.180 0 114
r 0.01132 18 15 tcp 40 ------- 0 167776769.181 167776001.179 0 45
+ 0.01132 15 18 ack 40 ------- 0 167776001.179 167776769.181 0 115
- 0.01132 15 18 ack 40 ------- 0 167776001.179 167776769.181 0 115
r 0.01132 19 3 tcp 40 ------- 0 167777025.180 167772929.179 0 46
+ 0.01132 3 19 ack 40 ------- 0 167772929.179 167777025.180 0 116
- 0.01132 3 19 ack 40 ------- 0 167772929.179 167777025.180 0 116
r 0.01132 19 20 tcp 40 ------- 0 167777025.181 167777281.179 0 47
+ 0.01132 20 19 ack 40 ------- 0 167777281.179 167777025.181 0 117
- 0.01132 20 19 ack 40 ------- 0 167777281.179 167777025.181 0 117
r 0.01132 19 21 tcp 40 ------- 0 167777025.182 167777537.179 0 48
+ 0.01132 21 19 ack 40 ------- 0 167777537.179 167777025.182 0 118
- 0.01132 21 19 ack 40 ------- 0 167777537.179 167777025.182 0 118
r 0.01132 19 22 tcp 40 ------- 0 167777025.183 167777793.179 0 49
+ 0.01132 22 19 ack 40 ------- 0 167777793.179 167777025.183 0 119
- 0.01132 22 19 ack 40 ------- 0 167777793.179 167777025.183 0 119
r 0.01132 20 19 tcp 40 ------- 0 167777281.180 167777025.179 0 50
+ 0.01132 19 20 ack 40 ------- 0 167777025.179 167777281.180 0 120
- 0.01132 19 20 ack 40 ------- 0 167777025.179 167777281.180 0 120
r 0.01132 21 19 tcp 40 ------- 0 167777537.180 167777025.179 0 51
+ 0.01132 19 21 ack 40 ------- 0 167777025.179 167777537.180 0 121
- 0.01132 19 21 ack 40 ------- 0 167777025.179 167777537.180 0 121
r 0.01132 22 19 tcp 40 ------- 0 167777793.180 167777025.179 0 52
+ 0.01132 19 22 ack 40 ------- 0 167777025.179 167777793.180 0 122
- 0.01132 19 22 ack 40 ------- 0 167777025.179 167777793.180 0 122
r 0.01132 23 4 tcp 40 ------- 0 167778049.180 167773185.179 0 53
+ 0.01132 4 23 ack 40 ------- 0 167773185.179 167778049.180 0 123
- 0.01132 4 23 ack 40 ------- 0 167773185.179 167778049.180 0 123
r 0.01132 23 25 tcp 40 ------- 0 167778049.181 167778561.179 0 54
+ 0.01132 25 23 ack 40 ------- 0 167778561.179 167778049.181 0 124
- 0.01132 25 23 ack 40 ------- 0 167778561.179 167778049.181 0 124
r 0.01132 23 26 tcp 40 ------- 0 167778049.182 167778817.179 0 55
+ 0.01132 26 23 ack 40 ------- 0 167778817.179 167778049.182 0 125
- 0.01132 26 23 ack 40 ------- 0 167778817.179 167778049.182 0 125
r 0.01132 24 4 tcp 40 ------- 0 167778305.180 167773185.179 0 56
+ 0.01132 4 24 ack 40 ------- 0 167773185.179 167778305.180 0 126
- 0.01132 4 24 ack 40 ------- 0 167773185.179 167778305.180 0 126
r 0.01132 24 27 tcp 40 ------- 0 167778305.181 167779073.179 0 57
+ 0.01132 27 24 ack 40 ------- 0 167779073.179 167778305.181 0 127
- 0.01132 27 24 ack 40 ------- 0 167779073.179 167778305.181 0 127
r 0.01132 24 28 tcp 40 ------- 0 167778305.182 167779329.179 0 58
+ 0.01132 28 24 ack 40 ------- 0 167779329.179 167778305.182 0 128
- 0.01132 28 24 ack 40 ------- 0 167779329.179 167778305.182 0 128
r 0.01132 24 29 tcp 40 ------- 0 167778305.183 167779585.179 0 59
+ 0.01132 29 24 ack 40 ------- 0 167779585.179 167778305.183 0 129
- 0.01132 29 24 ack 40 ------- 0 167779585.179 167778305.183 0 129
r 0.01132 25 23 tcp 40 ------- 0 167778561.180 167778049.179 0 60
+ 0.01132 23 25 ack 40 ------- 0 167778049.179 167778561.180 0 130
- 0.01132 23 25 ack 40 ------- 0 167778049.179 167778561.180 0 130
r 0.01132 26 23 tcp 40 ------- 0 167778817.180 167778049.179 0 61
+ 0.01132 23 26 ack 40 ------- 0 167778049.179 167778817.180 0 131
- 0.01132 23 26 ack 40 ------- 0 167778049.179 167778817.180 0 131
r 0.01132 27 24 tcp 40 ------- 0 167779073.180 167778305.179 0 62
+ 0.01132 24 27 ack 40 ------- 0 167778305.179 167779073.180 0 132
- 0.01132 24 27 ack 40 ------- 0 167778305.179 167779073.180 0 132
r 0.01132 27 30 tcp 40 ------- 0 167779073.181 167779841.179 0 63
+ 0.01132 30 27 ack 40 ------- 0 167779841.179 167779073.181 0 133
- 0.01132 30 27 ack 40 ------- 0 167779841.179 167779073.181 0 133
r 0.01132 27 31 tcp 40 ------- 0 167779073.182 167780097.179 0 64
+ 0.01132 31 27 ack 40 ------- 0 167780097.179 167779073.182 0 134
- 0.01132 31 27 ack 40 ------- 0 167780097.179 167779073.182 0 134
r 0.01132 28 24 tcp 40 ------- 0 167779329.180 167778305.179 0 65
+ 0.01132 24 28 ack 40 ------- 0 167778305.179 167779329.180 0 135
- 0.01132 24 28 ack 40 ------- 0 167778305.179 167779329.180 0 135
r 0.01132 29 24 tcp 40 ------- 0 167779585.180 167778305.179 0 66
+ 0.01132 24 29 ack 40 ------- 0 167778305.179 167779585.180 0 136
- 0.01132 24 29 ack 40 ------- 0 167778305.179 167779585.180 0 136
r 0.01132 29 9 tcp 40 ------- 0 167779585.181 167774465.179 0 67
+ 0.01132 9 29 ack 40 ------- 0 167774465.179 167779585.181 0 137
- 0.01132 9 29 ack 40 ------- 0 167774465.179 167779585.181 0 137
r 0.01132 30 27 tcp 40 ------- 0 167779841.180 167779073.179 0 68
+ 0.01132 27 30 ack 40 ------- 0 167779073.179 167779841.180 0 138
- 0.01132 27 30 ack 40 ------- 0 167779073.179 167779841.180 0 138
r 0.01132 31 27 tcp 40 ------- 0 167780097.180 167779073.179 0 69
+ 0.01132 27 31 ack 40 ------- 0 167779073.179 167780097.180 0 139
- 0.01132 27 31 ack 40 ------- 0 167779073.179 167780097.180 0 139
r 0.01264 1 0 ack 40 ------- 0 167772417.179 167772161.180 0 70
+ 0.01264 0 1 tcp 40 ------- 0 167772161.180 167772417.179 1 140
- 0.01264 0 1 tcp 40 ------- 0 167772161.180 167772417.179 1 140
+ 0.01264 0 1 tcp 40 ------- 0 167772161.180 167772417.179 1 141
r 0.01264 4 0 ack 40 ------- 0 167773185.179 167772161.181 0 71
+ 0.01264 0 4 tcp 40 ------- 0 167772161.181 167773185.179 1 142
- 0.01264 0 4 tcp 40 ------- 0 167772161.181 167773185.179 1 142
+ 0.01264 0 4 tcp 40 ------- 0 167772161.181 167773185.179 1 143
r 0.01264 0 1 ack 40 ------- 0 167772161.179 167772417.180 0 72
+ 0.01264 1 0 tcp 40 ------- 0 167772417.180 167772161.179 1 144
- 0.01264 1 0 tcp 40 ------- 0 167772417.180 167772161.179 1 144
+ 0.01264 1 0 tcp 40 ------- 0 167772417.180 167772161.179 1 145
r 0.01264 2 1 ack 40 ------- 0 167772673.179 167772417.181 0 73
+ 0.01264 1 2 tcp 40 ------- 0 167772417.181 167772673.179 1 146
- 0.01264 1 2 tcp 40 ------- 0 167772417.181 167772673.179 1 146
+ 0.01264 1 2 tcp 40 ------- 0 167772417.181 167772673.179 1 147
r 0.01264 5 1 ack 40 ------- 0 167773441.179 167772417.182 0 74
+ 0.01264 1 5 tcp 40 ------- 0 167772417.182 167773441.179 1 148
- 0.01264 1 5 tcp 40 ------- 0 167772417.182 167773441.179 1 148
+ 0.01264 1 5 tcp 40 ------- 0 167772417.182 167773441.179 1 149
r 0.01264 1 2 ack 40 ------- 0 167772417.179 167772673.180 0 75
+ 0.01264 2 1 tcp 40 ------- 0 167772673.180 167772417.179 1 150
- 0.01264 2 1 tcp 40 ------- 0 167772673.180 167772417.179 1 150
+ 0.01264 2 1 tcp 40 ------- 0 167772673.180 167772417.179 1 151
r 0.01264 4 2 ack 40 ------- 0 167773185.179 167772673.181 0 76
+ 0.01264 2 4 tcp 40 ------- 0 167772673.181 167773185.179 1 152
- 0.01264 2 4 tcp 40 ------- 0 167772673.181 167773185.179 1 152
+ 0.01264 2 4 tcp 40 ------- 0 167772673.181 167773185.179 1 153
r 0.01264 3 2 ack 40 ------- 0 167772929.179 167772673.182 0 77
+ 0.01264 2 3 tcp 40 ------- 0 167772673.182 167772929.179 1 154
- 0.01264 2 3 tcp 40 ------- 0 167772673.182 167772929.179 1 154
+ 0.01264 2 3 tcp 40 ------- 0 167772673.182 167772929.179 1 155
r 0.01264 2 3 ack 40 ------- 0 167772673.179 167772929.180 0 78
+ 0.01264 3 2 tcp 40 ------- 0 167772929.180 167772673.179 1 156
- 0.01264 3 2 tcp 40 ------- 0 167772929.180 167772673.179 1 156
+ 0.01264 3 2 tcp 40 ------- 0 167772929.180 167772673.179 1 157
r 0.01264 4 3 ack 40 ------- 0 167773185.179 167772929.181 0 79
+ 0.01264 3 4 tcp 40 ------- 0 167772929.181 167773185.179 1 158
- 0.01264 3 4 tcp 40 ------- 0 167772929.181 167773185.179 1 158
+ 0.01264 3 4 tcp 40 ------- 0 167772929.181 167773185.179 1 159
r 0.01264 18 3 ack 40 ------- 0 167776769.179 167772929.182 0 80
+ 0.01264 3 18 tcp 40 ------- 0 167772929.182 167776769.179 1 160
- 0.01264 3 18 tcp 40 ------- 0 167772929.182 167776769.179 1 160
+ 0.01264 3 18 tcp 40 ------- 0 167772929.182 167776769.179 1 161
r 0.01264 19 3 ack 40 ------- 0 167777025.179 167772929.183 0 81
+ 0.01264 3 19 tcp 40 ------- 0 167772929.183 167777025.179 1 162
- 0.01264 3 19 tcp 40 ------- 0 167772929.183 167777025.179 1 162
+ 0.01264 3 19 tcp 40 ------- 0 167772929.183 167777025.179 1 163
r 0.01264 0 4 ack 40 ------- 0 167772161.179 167773185.180 0 82
+ 0.01264 4 0 tcp 40 ------- 0 167773185.180 167772161.179 1 164
- 0.01264 4 0 tcp 40 ------- 0 167773185.180 167772161.179 1 164
+ 0.01264 4 0 tcp 40 ------- 0 167773185.180 167772161.179 1 165
r 0.01264 2 4 ack 40 ------- 0 167772673.179 167773185.181 0 83
+ 0.01264 4 2 tcp 40 ------- 0 167773185.181 167772673.179 1 166
- 0.01264 4 2 tcp 40 ------- 0 167773185.181 167772673.179 1 166
+ 0.01264 4 2 tcp 40 ------- 0 167773185.181 167772673.179 1 167
r 0.01264 3 4 ack 40 ------- 0 167772929.179 167773185.182 0 84
+ 0.01264 4 3 tcp 40 ------- 0 167773185.182 167772929.179 1 168
- 0.01264 4 3 tcp 40 ------- 0 167773185.182 167772929.179 1 168
+ 0.01264 4 3 tcp 40 ------- 0 167773185.182 167772929.179 1 169
r 0.01264 23 4 ack 40 ------- 0 167778049.179 167773185.183 0 85
+ 0.01264 4 23 tcp 40 ------- 0 167773185.183 167778049.179 1 170
- 0.01264 4 23 tcp 40 ------- 0 167773185.183 167778049.179 1 170
+ 0.01264 4 23 tcp 40 ------- 0 167773185.183 167778049.179 1 171
r 0.01264 24 4 ack 40 ------- 0 167778305.179 167773185.184 0 86
+ 0.01264 4 24 tcp 40 ------- 0 167773185.184 167778305.179 1 172
- 0.01264 4 24 tcp 40 ------- 0 167773185.184 167778305.179 1 172
+ 0.01264 4 24 tcp 40 ------- 0 167773185.184 167778305.179 1 173
r 0.01264 1 5 ack 40 ------- 0 167772417.179 167773441.180 0 87
+ 0.01264 5 1 tcp 40 ------- 0 167773441.180 167772417.179 1 174
- 0.01264 5 1 tcp 40 ------- 0 167773441.180 167772417.179 1 174
+ 0.01264 5 1 tcp 40 ------- 0 167773441.180 167772417.179 1 175
r 0.01264 6 5 ack 40 ------- 0 167773697.179 167773441.181 0 88
+ 0.01264 5 6 tcp 40 ------- 0 167773441.181 167773697.179 1 176
- 0.01264 5 6 tcp 40 ------- 0 167773441.181 167773697.179 1 176
+ 0.01264 5 6 tcp 40 ------- 0 167773441.181 167773697.179 1 177
r 0.01264 7 5 ack 40 ------- 0 167773953.179 167773441.182 0 89
+ 0.01264 5 7 tcp 40 ------- 0 167773441.182 167773953.179 1 178
- 0.01264 5 7 tcp 40 ------- 0 167773441.182 167773953.179 1 178
+ 0.01264 5 7 tcp 40 ------- 0 167773441.182 167773953.179 1 179
r 0.01264 8 5 ack 40 ------- 0 167774209.179 167773441.183 0 90
+ 0.01264 5 8 tcp 40 ------- 0 167773441.183 167774209.179 1 180
- 0.01264 5 8 tcp 40 ------- 0 167773441.183 167774209.179 1 180
+ 0.01264 5 8 tcp 40 ------- 0 167773441.183 167774209.179 1 181
r 0.01264 5 6 ack 40 ------- 0 167773441.179 167773697.180 0 91
+ 0.01264 6 5 tcp 40 ------- 0 167773697.180 167773441.179 1 182
- 0.01264 6 5 tcp 40 ------- 0 167773697.180 167773441.179 1 182
+ 0.01264 6 5 tcp 40 ------- 0 167773697.180 167773441.179 1 183
r 0.01264 9 6 ack 40 ------- 0 167774465.179 167773697.181 0 92
+ 0.01264 6 9 tcp 40 ------- 0 167773697.181 167774465.179 1 184
- 0.01264 6 9 tcp 40 ------- 0 167773697.181 167774465.179 1 184
+ 0.01264 6 9 tcp 40 ------- 0 167773697.181 167774465.179 1 185
r 0.01264 10 6 ack 40 ------- 0 167774721.179 167773697.182 0 93
+ 0.01264 6 10 tcp 40 ------- 0 167773697.182 167774721.179 1 186
- 0.01264 6 10 tcp 40 ------- 0 167773697.182 167774721.179 1 186
+ 0.01264 6 10 tcp 40 ------- 0 167773697.182 167774721.179 1 187
r 0.01264 11 6 ack 40 ------- 0 167774977.179 167773697.183 0 94
+ 0.01264 6 11 tcp 40 ------- 0 167773697.183 167774977.179 1 188
- 0.01264 6 11 tcp 40 ------- 0 167773697.183 167774977.179 1 188
+ 0.01264 6 11 tcp 40 ------- 0 167773697.183 167774977.179 1 189
r 0.01264 5 7 ack 40 ------- 0 167773441.179 167773953.180 0 95
+ 0.01264 7 5 tcp 40 ------- 0 167773953.180 167773441.179 1 190
- 0.01264 7 5 tcp 40 ------- 0 167773953.180 167773441.179 1 190
+ 0.01264 7 5 tcp 40 ------- 0 167773953.180 167773441.179 1 191
r 0.01264 5 8 ack 40 ------- 0 167773441.179 167774209.180 0 96
+ 0.01264 8 5 tcp 40 ------- 0 167774209.180 167773441.179 1 192
- 0.01264 8 5 tcp 40 ------- 0 167774209.180 167773441.179 1 192
+ 0.01264 8 5 tcp 40 ------- 0 167774209.180 167773441.179 1 193
r 0.01264 12 8 ack 40 ------- 0 167775233.179 167774209.181 0 97
+ 0.01264 8 12 tcp 40 ------- 0 167774209.181 167775233.179 1 194
- 0.01264 8 12 tcp 40 ------- 0 167774209.181 167775233.179 1 194
+ 0.01264 8 12 tcp 40 ------- 0 167774209.181 167775233.179 1 195
r 0.01264 13 8 ack 40 ------- 0 167775489.179 167774209.182 0 98
+ 0.01264 8 13 tcp 40 ------- 0 167774209.182 167775489.179 1 196
- 0.01264 8 13 tcp 40 ------- 0 167774209.182 167775489.179 1 196
+ 0.01264 8 13 tcp 40 ------- 0 167774209.182 167775489.179 1 197